<event>
13    1  0.2101801E-008  0.7859439E+02  0.7546771E-02  0.1343898E+00
          2   -1    0    0  502    0  0.00000000000E+00  0.00000000000E+00  0.96226352453E+03  0.96226352453E+03  0.00000000000E+00 0. -1.
          2   -1    0    0  503    0 -0.00000000000E+00 -0.00000000000E+00 -0.11652519965E+04  0.11652519965E+04  0.00000000000E+00 0. -1.
         24    2    1    2    0    0  0.25376858781E+02  0.66321310702E+01 -0.89720656629E+02  0.12191015505E+03  0.78258031882E+02 0.  0.
         25    2    1    2    0    0  0.48246850015E+02 -0.42794567020E+02 -0.14277211069E+03  0.20041368113E+03  0.12499053760E+03 0.  0.
         24    2    1    2    0    0 -0.19350043073E+02 -0.13081209034E+02  0.69199345336E+02  0.10820971799E+03  0.79845171899E+02 0.  0.
        -11    1    5    5    0    0  0.20090212016E+02 -0.31579414101E+02  0.19788363855E+02  0.42337399045E+02  0.00000000000E+00 0.  1.
         12    1    5    5    0    0 -0.39440255088E+02  0.18498205068E+02  0.49410981481E+02  0.65872318944E+02  0.00000000000E+00 0. -1.
        -13    1    3    3    0    0  0.36962707131E+02 -0.27514755042E+02 -0.56218081806E+02  0.72689587875E+02  0.00000000000E+00 0.  1.
         14    1    3    3    0    0 -0.11585848350E+02  0.34146886113E+02 -0.33502574824E+02  0.49220567175E+02  0.00000000000E+00 0. -1.
          5    1    4    4  501    0 -0.42139952141E+02 -0.21515868899E+02 -0.44379799789E+02  0.65041254679E+02  0.47000000000E+01 0. -1.
         -5    1    4    4    0  501  0.90386802156E+02 -0.21278698121E+02 -0.98392310905E+02  0.13537242645E+03  0.47000000000E+01 0. -1.
          1    1    1    2  502    0 -0.65383024577E+02 -0.29068359166E+02  0.82529100973E+03  0.82838708353E+03  0.00000000000E+00 0. -1.
          1    1    1    2  503    0  0.11109358853E+02  0.78312004150E+02 -0.86498605967E+03  0.86859488328E+03  0.00000000000E+00 0. -1.
<mgrwt>
<rscale>  0 0.74991380E+02</rscale>
<asrwt>0</asrwt>
<pdfrwt beam="1">  1        2 0.14150934E+00 0.71553542E+02</pdfrwt>
<pdfrwt beam="2">  1        2 0.17136059E+00 0.78594392E+02</pdfrwt>
<totfact> 0.11780388E+02</totfact>
</mgrwt>
</event>
<event>
13    1  0.2101801E-008  0.6600060E+02  0.7546771E-02  0.1383502E+00
          2   -1    0    0  502    0  0.00000000000E+00  0.00000000000E+00  0.11850136776E+04  0.11850136776E+04  0.00000000000E+00 0. -1.
          2   -1    0    0  503    0 -0.00000000000E+00 -0.00000000000E+00 -0.18689266051E+04  0.18689266051E+04  0.00000000000E+00 0. -1.
         24    2    1    2    0    0  0.96362679907E+01  0.13565519968E+03 -0.33208275144E+02  0.16170488558E+03  0.80935095123E+02 0.  0.
         25    2    1    2    0    0 -0.53951381642E+02 -0.17907467340E+03 -0.15107354217E+03  0.27097129661E+03  0.12499495273E+03 0.  0.
         24    2    1    2    0    0  0.54457993216E+02  0.76878233530E+00 -0.12448897365E+02  0.97828348781E+02  0.80306579607E+02 0.  0.
        -13    1    5    5    0    0  0.54489595623E+02  0.21739524771E+02  0.17542170980E+02  0.61232758644E+02  0.00000000000E+00 0.  1.
         14    1    5    5    0    0 -0.31602406768E-01 -0.20970742436E+02 -0.29991068345E+02  0.36595590137E+02  0.00000000000E+00 0. -1.
        -13    1    3    3    0    0 -0.20264662064E+02  0.10866977573E+03 -0.16814383471E+01  0.11055588596E+03  0.00000000000E+00 0.  1.
         14    1    3    3    0    0  0.29900930055E+02  0.26985423949E+02 -0.31526836797E+02  0.51148999621E+02  0.00000000000E+00 0. -1.
          5    1    4    4  501    0 -0.86005400618E+02 -0.88507789435E+02 -0.55579796128E+02  0.13543175944E+03  0.47000000000E+01 0.  1.
         -5    1    4    4    0  501  0.32054018976E+02 -0.90566883967E+02 -0.95493746044E+02  0.13553953717E+03  0.47000000000E+01 0.  1.
          1    1    1    2  502    0  0.54417703299E+02  0.27991006102E+02  0.10164782187E+04  0.10183185906E+04  0.00000000000E+00 0. -1.
          1    1    1    2  503    0 -0.64560582864E+02  0.14659685287E+02 -0.15036604316E+04  0.15051171611E+04  0.00000000000E+00 0. -1.
<mgrwt>
<rscale>  0 0.63552201E+02</rscale>
<asrwt>0</asrwt>
<pdfrwt beam="1">  1        2 0.17426672E+00 0.61194631E+02</pdfrwt>
<pdfrwt beam="2">  1        2 0.27484215E+00 0.66000598E+02</pdfrwt>
<totfact> 0.41104948E+01</totfact>
</mgrwt>
</event>
<event>
13    1  0.2101801E-008  0.1376076E+03  0.7546771E-02  0.1338062E+00
          2   -1    0    0  502    0  0.00000000000E+00  0.00000000000E+00  0.29251373627E+04  0.29251373627E+04  0.00000000000E+00 0. -1.
          2   -1    0    0  503    0 -0.00000000000E+00 -0.00000000000E+00 -0.13361988861E+04  0.13361988861E+04  0.00000000000E+00 0. -1.
         24    2    1    2    0    0  0.28755399268E+03  0.13401149650E+03 -0.17363124789E+03  0.37081542016E+03  0.81913891930E+02 0.  0.
         25    2    1    2    0    0 -0.23294129793E+03 -0.25137884861E+03  0.15894188806E+04  0.16307450738E+04  0.12499657509E+03 0.  0.
         24    2    1    2    0    0 -0.12095454799E+03 -0.25694199123E+02  0.18789179602E+02  0.14814724491E+03  0.79400115600E+02 0.  0.
        -13    1    5    5    0    0 -0.11855357030E+03 -0.80387441343E+01 -0.43950628175E+01  0.11890705200E+03  0.00000000000E+00 0.  1.
         14    1    5    5    0    0 -0.24009776825E+01 -0.17655454988E+02  0.23184242419E+02  0.29240192907E+02  0.00000000000E+00 0. -1.
        -13    1    3    3    0    0  0.94443876890E+02  0.15498555690E+02 -0.22063012429E+02  0.98217247100E+02  0.00000000000E+00 0.  1.
         14    1    3    3    0    0  0.19311011579E+03  0.11851294081E+03 -0.15156823546E+03  0.27259817306E+03  0.00000000000E+00 0. -1.
          5    1    4    4  501    0 -0.17854491555E+03 -0.24322835754E+03  0.11964562875E+04  0.12339238464E+04  0.47000000000E+01 0. -1.
         -5    1    4    4    0  501 -0.54396382373E+02 -0.81504910739E+01  0.39296259316E+03  0.39682122744E+03  0.47000000000E+01 0. -1.
          1    1    1    2  502    0  0.42304609936E+02  0.76103924608E+01  0.11277491378E+04  0.11285679935E+04  0.00000000000E+00 0. -1.
          1    1    1    2  503    0  0.24037243300E+02  0.13545115877E+03 -0.97338747356E+03  0.98306051653E+03  0.00000000000E+00 0. -1.
<mgrwt>
<rscale>  0 0.76908268E+02</rscale>
<asrwt>0</asrwt>
<pdfrwt beam="1">  1        2 0.43016726E+00 0.42983696E+02</pdfrwt>
<pdfrwt beam="2">  1        2 0.19649984E+00 0.13760756E+03</pdfrwt>
<totfact> 0.10701631E+01</totfact>
</mgrwt>
</event>
<event>
13    1  0.2101801E-008  0.1547104E+03  0.7546771E-02  0.1349405E+00
          2   -1    0    0  503    0  0.00000000000E+00  0.00000000000E+00  0.24612003616E+04  0.24612003616E+04  0.00000000000E+00 0. -1.
          2   -1    0    0  502    0 -0.00000000000E+00 -0.00000000000E+00 -0.16359671929E+04  0.16359671929E+04  0.00000000000E+00 0. -1.
         24    2    1    2    0    0 -0.26172094637E+03 -0.11610698527E+03 -0.67319516378E+03  0.73691771769E+03  0.88754201641E+02 0.  0.
         25    2    1    2    0    0  0.42109353599E+03  0.14410692924E+03  0.23679341711E+03  0.51940698334E+03  0.12500367534E+03 0.  0.
         24    2    1    2    0    0  0.28956242845E+02 -0.17007841637E+02  0.12276889229E+03  0.14972654168E+03  0.78854966181E+02 0.  0.
        -11    1    3    3    0    0 -0.56980052145E+02 -0.69062648545E+02 -0.21196264848E+03  0.23009680597E+03  0.00000000000E+00 0.  1.
         12    1    3    3    0    0 -0.20474089422E+03 -0.47044336725E+02 -0.46123251531E+03  0.50682091172E+03  0.00000000000E+00 0. -1.
        -13    1    5    5    0    0  0.51897229292E+02 -0.25913749096E+02  0.10279209493E+03  0.11802990968E+03  0.00000000000E+00 0.  1.
         14    1    5    5    0    0 -0.22940986447E+02  0.89059074591E+01  0.19976797366E+02  0.31696631996E+02  0.00000000000E+00 0. -1.
          5    1    4    4  501    0  0.19523584004E+03  0.39188534748E+01  0.11798442495E+03  0.22819904728E+03  0.47000000000E+01 0. -1.
         -5    1    4    4    0  501  0.22585769595E+03  0.14018807577E+03  0.11880899216E+03  0.29120793606E+03  0.47000000000E+01 0. -1.
          1    1    1    2  502    0 -0.15458273427E+03 -0.30280333243E+01 -0.76826588929E+03  0.78366923339E+03  0.00000000000E+00 0. -1.
          1    1    1    2  503    0 -0.33746098203E+02 -0.79640690107E+01  0.19071319124E+04  0.19074470784E+04  0.00000000000E+00 0. -1.
<mgrwt>
<rscale>  0 0.73241332E+02</rscale>
<asrwt>0</asrwt>
<pdfrwt beam="1">  1        2 0.36194123E+00 0.34673124E+02</pdfrwt>
<pdfrwt beam="2">  1        2 0.24058341E+00 0.15471039E+03</pdfrwt>
<totfact> 0.13025618E+01</totfact>
</mgrwt>
</event>
<event>
13    1  0.2101801E-008  0.1062162E+03  0.7546771E-02  0.1269550E+00
          2   -1    0    0  503    0  0.00000000000E+00  0.00000000000E+00  0.19329298474E+04  0.19329298474E+04  0.00000000000E+00 0. -1.
          2   -1    0    0  502    0 -0.00000000000E+00 -0.00000000000E+00 -0.10620068638E+04  0.10620068638E+04  0.00000000000E+00 0. -1.
         24    2    1    2    0    0 -0.14104381197E+03 -0.13753349428E+03 -0.22211842777E+03  0.30708337896E+03  0.78452448865E+02 0.  0.
         25    2    1    2    0    0  0.31933058594E+03  0.43295545033E+02  0.19329629561E+03  0.39604836211E+03  0.12507725569E+03 0.  0.
         24    2    1    2    0    0  0.44664538883E+02 -0.13597152173E+02  0.15710503628E+03  0.18282882570E+03  0.81022117359E+02 0.  0.
        -11    1    5    5    0    0  0.64048933406E+02 -0.27215941902E+02  0.12259564737E+03  0.14097044413E+03  0.00000000000E+00 0.  1.
         12    1    5    5    0    0 -0.19384394524E+02  0.13618789729E+02  0.34509388918E+02  0.41858381576E+02  0.00000000000E+00 0. -1.
        -13    1    3    3    0    0 -0.36746211926E+02 -0.84802139576E+02 -0.73914800750E+02  0.11834308065E+03  0.00000000000E+00 0.  1.
         14    1    3    3    0    0 -0.10429760005E+03 -0.52731354709E+02 -0.14820362702E+03  0.18874029831E+03  0.00000000000E+00 0. -1.
          5    1    4    4  501    0  0.21446612657E+03  0.75385705481E+02  0.16983418775E+03  0.28380356827E+03  0.47000000000E+01 0.  1.
         -5    1    4    4    0  501  0.10486445937E+03 -0.32090160448E+02  0.23462107865E+02  0.11224479383E+03  0.47000000000E+01 0.  1.
          1    1    1    2  502    0 -0.70872140943E+02  0.76743603187E+02 -0.67491309652E+03  0.68294958002E+03  0.00000000000E+00 0. -1.
          1    1    1    2  503    0 -0.15207917191E+03  0.31091498237E+02  0.14175531759E+04  0.14260265644E+04  0.00000000000E+00 0. -1.
<mgrwt>
<rscale>  0 0.10528946E+03</rscale>
<asrwt>0</asrwt>
<pdfrwt beam="1">  1        2 0.28425439E+00 0.10621620E+03</pdfrwt>
<pdfrwt beam="2">  1        2 0.15617748E+00 0.10437081E+03</pdfrwt>
<totfact> 0.41284572E+01</totfact>
</mgrwt>
</event>
<event>
13    1  0.2101801E-008  0.1114231E+03  0.7546771E-02  0.1353576E+00
          2   -1    0    0  503    0  0.00000000000E+00  0.00000000000E+00  0.22327342074E+04  0.22327342074E+04  0.00000000000E+00 0. -1.
          2   -1    0    0  502    0 -0.00000000000E+00 -0.00000000000E+00 -0.10662774371E+04  0.10662774371E+04  0.00000000000E+00 0. -1.
         24    2    1    2    0    0 -0.83953546622E+02  0.60398490389E+02  0.67200873977E+03  0.68456164960E+03  0.79578452760E+02 0.  0.
         25    2    1    2    0    0 -0.62394702427E+02 -0.17156092439E+02 -0.23396124151E+03  0.27303505152E+03  0.12499138542E+03 0.  0.
         24    2    1    2    0    0  0.39615911502E+02 -0.56186205239E+02 -0.52463403108E+03  0.53529867795E+03  0.81101775178E+02 0.  0.
        -13    1    5    5    0    0 -0.11241271311E+02  0.27097620347E+01 -0.11536281466E+02  0.16333853832E+02  0.00000000000E+00 0.  1.
         14    1    5    5    0    0  0.50857182813E+02 -0.58895967273E+02 -0.51309774962E+03  0.51896482412E+03  0.00000000000E+00 0. -1.
        -13    1    3    3    0    0 -0.11992259986E+02 -0.86116112560E+01  0.19391425285E+02  0.24372146450E+02  0.00000000000E+00 0.  1.
         14    1    3    3    0    0 -0.71961286636E+02  0.69010101645E+02  0.65261731449E+03  0.66018950315E+03  0.00000000000E+00 0. -1.
          5    1    4    4  501    0 -0.53871710272E+02 -0.68197476260E+02 -0.16656784780E+03  0.18793614569E+03  0.47000000000E+01 0. -1.
         -5    1    4    4    0  501 -0.85229921557E+01  0.51041383821E+02 -0.67393393709E+02  0.85098905829E+02  0.47000000000E+01 0. -1.
          1    1    1    2  502    0  0.80431640244E+00  0.46457296289E+02 -0.27255023427E+03  0.27648247233E+03  0.00000000000E+00 0. -1.
          1    1    1    2  503    0  0.10592802114E+03 -0.33513489000E+02  0.15255935374E+04  0.15296337931E+04  0.00000000000E+00 0. -1.
<mgrwt>
<rscale>  0 0.71952712E+02</rscale>
<asrwt>0</asrwt>
<pdfrwt beam="1">  1        2 0.32834326E+00 0.11142312E+03</pdfrwt>
<pdfrwt beam="2">  1        2 0.15680551E+00 0.46464258E+02</pdfrwt>
<totfact> 0.30518261E+01</totfact>
</mgrwt>
</event>
<event>
13    1  0.2101801E-008  0.8607755E+02  0.7546771E-02  0.1333056E+00
          2   -1    0    0  502    0  0.00000000000E+00  0.00000000000E+00  0.18625431554E+03  0.18625431554E+03  0.00000000000E+00 0. -1.
          2   -1    0    0  503    0 -0.00000000000E+00 -0.00000000000E+00 -0.20983719824E+04  0.20983719824E+04  0.00000000000E+00 0. -1.
         24    2    1    2    0    0  0.98764358196E+02 -0.85090923954E+02 -0.28467866936E+03  0.32307841429E+03  0.79642031630E+02 0.  0.
         25    2    1    2    0    0  0.64694817976E+01  0.15483468446E+03 -0.78415577745E+03  0.80903653520E+03  0.12499679306E+03 0.  0.
         24    2    1    2    0    0 -0.63338984583E+02 -0.18663912149E+02  0.10133677169E+03  0.14249714177E+03  0.75340065911E+02 0.  0.
        -11    1    3    3    0    0  0.72601831951E+01  0.92209092635E+01 -0.72936770928E+02  0.73874948264E+02  0.00000000000E+00 0.  1.
         12    1    3    3    0    0  0.91504175001E+02 -0.94311833217E+02 -0.21174189843E+03  0.24920346603E+03  0.00000000000E+00 0. -1.
        -13    1    5    5    0    0  0.15142445077E+02 -0.11238722682E+02  0.84399123908E+01  0.20659977047E+02  0.00000000000E+00 0.  1.
         14    1    5    5    0    0 -0.78481429660E+02 -0.74251894674E+01  0.92896859303E+02  0.12183716473E+03  0.00000000000E+00 0. -1.
          5    1    4    4  501    0  0.47983049756E+02  0.14423166775E+03 -0.53562204302E+03  0.55679278912E+03  0.47000000000E+01 0.  1.
         -5    1    4    4    0  501 -0.41513567958E+02  0.10603016706E+02 -0.24853373443E+03  0.25224374608E+03  0.47000000000E+01 0.  1.
          1    1    1    2  502    0  0.44646552836E+02 -0.56208250419E+02 -0.11287671288E+02  0.72664252686E+02  0.00000000000E+00 0. -1.
          1    1    1    2  503    0 -0.86541408246E+02  0.51284020664E+01 -0.93333232048E+03  0.93734995402E+03  0.00000000000E+00 0. -1.
<mgrwt>
<rscale>  0 0.78605565E+02</rscale>
<asrwt>0</asrwt>
<pdfrwt beam="1">  1        2 0.27390341E-01 0.71782185E+02</pdfrwt>
<pdfrwt beam="2">  1        2 0.30858411E+00 0.86077552E+02</pdfrwt>
<totfact> 0.24293999E+02</totfact>
</mgrwt>
</event>
<event>
13    1  0.2101801E-008  0.5082588E+02  0.7546771E-02  0.1517586E+00
          2   -1    0    0  502    0  0.00000000000E+00  0.00000000000E+00  0.18629682834E+04  0.18629682834E+04  0.00000000000E+00 0. -1.
          2   -1    0    0  503    0 -0.00000000000E+00 -0.00000000000E+00 -0.24706589684E+04  0.24706589684E+04  0.00000000000E+00 0. -1.
         24    2    1    2    0    0  0.20435400219E+03  0.11487307766E+04 -0.37621645325E+03  0.12291623433E+04  0.89209254931E+02 0.  0.
         25    2    1    2    0    0 -0.56563027167E+03 -0.60094611401E+03  0.37926221872E+03  0.91680834057E+03  0.12499546643E+03 0.  0.
         24    2    1    2    0    0  0.32488876870E+03 -0.49632796219E+03 -0.28433947729E+03  0.66299693381E+03  0.82594417629E+02 0.  0.
        -11    1    5    5    0    0  0.28358637827E+03 -0.37994294477E+03 -0.20734255656E+03  0.51746382577E+03  0.00000000000E+00 0.  1.
         12    1    5    5    0    0  0.41302390430E+02 -0.11638501742E+03 -0.76996920731E+02  0.14553310804E+03  0.00000000000E+00 0. -1.
        -11    1    3    3    0    0  0.16308228184E+03  0.98694975223E+03 -0.35197650005E+03  0.10604494805E+04  0.00000000000E+00 0.  1.
         12    1    3    3    0    0  0.41271720347E+02  0.16178102434E+03 -0.24239953198E+02  0.16871286278E+03  0.00000000000E+00 0. -1.
          5    1    4    4  501    0 -0.34929833245E+03 -0.32387839557E+03  0.27533958041E+03  0.55021860629E+03  0.47000000000E+01 0. -1.
         -5    1    4    4    0  501 -0.21633193921E+03 -0.27706771844E+03  0.10392263831E+03  0.36658973428E+03  0.47000000000E+01 0. -1.
          1    1    1    2  502    0 -0.88057282857E+01 -0.28206824208E+02  0.59806857837E+03  0.59879812142E+03  0.00000000000E+00 0. -1.
          1    1    1    2  503    0  0.45193229067E+02 -0.23249876168E+02 -0.92446555155E+03  0.92586151270E+03  0.00000000000E+00 0. -1.
<mgrwt>
<rscale>  0 0.38754007E+02</rscale>
<asrwt>0</asrwt>
<pdfrwt beam="1">  1        2 0.27396592E+00 0.29549379E+02</pdfrwt>
<pdfrwt beam="2">  1        2 0.36333220E+00 0.50825875E+02</pdfrwt>
<totfact> 0.11152895E+01</totfact>
</mgrwt>
</event>
<event>
13    1  0.2101801E-008  0.9605233E+02  0.7546771E-02  0.1318901E+00
          2   -1    0    0  502    0  0.00000000000E+00  0.00000000000E+00  0.18620477775E+04  0.18620477775E+04  0.00000000000E+00 0. -1.
          2   -1    0    0  503    0 -0.00000000000E+00 -0.00000000000E+00 -0.22607793394E+04  0.22607793394E+04  0.00000000000E+00 0. -1.
         24    2    1    2    0    0 -0.55426309356E+03 -0.75061604450E+02  0.27328366438E+03  0.62758402979E+03  0.79598567066E+02 0.  0.
         25    2    1    2    0    0  0.84792245247E+03  0.30668377122E+03 -0.27137465292E+02  0.91070493182E+03  0.12497843771E+03 0.  0.
         24    2    1    2    0    0 -0.13489566872E+03 -0.18900033228E+03  0.40839327502E+03  0.47546586908E+03  0.73244512029E+02 0.  0.
        -11    1    5    5    0    0 -0.11507645941E+03 -0.18578810355E+03  0.33992837494E+03  0.40411769452E+03  0.00000000000E+00 0.  1.
         12    1    5    5    0    0 -0.19819209307E+02 -0.32122287221E+01  0.68464900081E+02  0.71348174567E+02  0.00000000000E+00 0. -1.
        -11    1    3    3    0    0 -0.82594951915E+02  0.13416707915E+02  0.56703458995E+02  0.10108024730E+03  0.00000000000E+00 0.  1.
         12    1    3    3    0    0 -0.47166814165E+03 -0.88478312365E+02  0.21658020538E+03  0.52650378248E+03  0.00000000000E+00 0. -1.
          5    1    4    4  501    0  0.59819868509E+03  0.17876362470E+03  0.26875658401E+02  0.62493398961E+03  0.47000000000E+01 0.  1.
         -5    1    4    4    0  501  0.24972376739E+03  0.12792014653E+03 -0.54013123693E+02  0.28577094222E+03  0.47000000000E+01 0.  1.
          1    1    1    2  502    0 -0.72913714789E+02  0.29877138785E+00  0.52391698506E+03  0.52896645102E+03  0.00000000000E+00 0. -1.
          1    1    1    2  503    0 -0.85849975404E+02 -0.42920605884E+02 -0.15771880211E+04  0.15801058352E+04  0.00000000000E+00 0. -1.
<mgrwt>
<rscale>  0 0.83687460E+02</rscale>
<asrwt>0</asrwt>
<pdfrwt beam="1">  1        2 0.27383056E+00 0.72914327E+02</pdfrwt>
<pdfrwt beam="2">  1        2 0.33246755E+00 0.96052330E+02</pdfrwt>
<totfact> 0.11809819E+01</totfact>
</mgrwt>
</event>
<event>
13    1  0.2101801E-008  0.1113844E+03  0.7546771E-02  0.1362854E+00
          2   -1    0    0  503    0  0.00000000000E+00  0.00000000000E+00  0.34252300919E+04  0.34252300919E+04  0.00000000000E+00 0. -1.
         -1   -1    0    0    0  501 -0.00000000000E+00 -0.00000000000E+00 -0.38214838519E+03  0.38214838519E+03  0.00000000000E+00 0.  1.
         24    2    1    2    0    0  0.45634762928E+02  0.32117527490E+02  0.35331552468E+01  0.98274741853E+02  0.80816919892E+02 0.  0.
         25    2    1    2    0    0  0.13994767347E+03  0.19373246939E+03  0.16205113605E+04  0.16428041496E+04  0.12502313158E+03 0.  0.
         24    2    1    2    0    0 -0.31616152806E+02 -0.82389928304E+02  0.46102282070E+02  0.12880576211E+03  0.81717945012E+02 0.  0.
        -11    1    3    3    0    0 -0.18756436552E+02  0.16423540719E+02 -0.15454633136E+02  0.29332273817E+02  0.00000000000E+00 0.  1.
         12    1    3    3    0    0  0.64391199480E+02  0.15693986771E+02  0.18987788383E+02  0.68942468036E+02  0.00000000000E+00 0. -1.
        -11    1    5    5    0    0 -0.56053614088E+02 -0.61271922491E+02  0.15830587622E+02  0.84539124921E+02  0.00000000000E+00 0.  1.
         12    1    5    5    0    0  0.24437461282E+02 -0.21118005813E+02  0.30271694448E+02  0.44266637191E+02  0.00000000000E+00 0. -1.
          5    1    4    4  502    0  0.19533028935E+01 -0.15521409578E+02  0.17038747589E+03  0.17116866386E+03  0.47000000000E+01 0.  1.
         -5    1    4    4    0  502  0.13799437057E+03  0.20925387897E+03  0.14501238847E+04  0.14716354858E+04  0.47000000000E+01 0.  1.
          1    1    1    2  503    0 -0.20548565887E+02 -0.37755464530E+02  0.16292445765E+04  0.16298115255E+04  0.00000000000E+00 0. -1.
         -2    1    1    2    0  501 -0.13341771770E+03 -0.10570460405E+03 -0.25630966768E+03  0.30768229793E+03  0.00000000000E+00 0.  1.
<mgrwt>
<rscale>  0 0.69194426E+02</rscale>
<asrwt>0</asrwt>
<pdfrwt beam="1">  1        2 0.50371029E+00 0.42985098E+02</pdfrwt>
<pdfrwt beam="2">  1       -1 0.56198294E-01 0.11138438E+03</pdfrwt>
<totfact> 0.75584568E+00</totfact>
</mgrwt>
</event>
<event>
13    1  0.2101801E-008  0.2478358E+03  0.7546771E-02  0.1310747E+00
          2   -1    0    0  502    0  0.00000000000E+00  0.00000000000E+00  0.32156468423E+04  0.32156468423E+04  0.00000000000E+00 0. -1.
          2   -1    0    0  503    0 -0.00000000000E+00 -0.00000000000E+00 -0.10445210978E+04  0.10445210978E+04  0.00000000000E+00 0. -1.
         24    2    1    2    0    0  0.55670817370E+02 -0.89341473261E+02  0.20430399490E+03  0.24241856519E+03  0.77107066244E+02 0.  0.
         25    2    1    2    0    0 -0.30023287700E+02  0.11498365167E+02  0.39506963270E+03  0.41561860908E+03  0.12500081328E+03 0.  0.
         24    2    1    2    0    0  0.18536214930E+03  0.20599263483E+03  0.12718341854E+04  0.13041040037E+04  0.79579931291E+02 0.  0.
        -13    1    5    5    0    0  0.17105761088E+03  0.14076493136E+03  0.98093955195E+03  0.10056430165E+04  0.00000000000E+00 0.  1.
         14    1    5    5    0    0  0.14304538428E+02  0.65227703469E+02  0.29089463343E+03  0.29846098720E+03  0.00000000000E+00 0. -1.
        -13    1    3    3    0    0  0.65623899907E+02 -0.53397957520E+02  0.96450855419E+02  0.12829889172E+03  0.00000000000E+00 0.  1.
         14    1    3    3    0    0 -0.99530825375E+01 -0.35943515741E+02  0.10785313948E+03  0.11411967347E+03  0.00000000000E+00 0. -1.
          5    1    4    4  501    0  0.19114192691E+02  0.47816040635E+02  0.28487290111E+03  0.28952786721E+03  0.47000000000E+01 0. -1.
         -5    1    4    4    0  501 -0.49137480391E+02 -0.36317675467E+02  0.11019673159E+03  0.12609074186E+03  0.47000000000E+01 0. -1.
          1    1    1    2  502    0 -0.21572997248E+03 -0.98105664722E+02  0.12879270784E+04  0.13095496561E+04  0.00000000000E+00 0. -1.
          1    1    1    2  503    0  0.47202935090E+01 -0.30043862016E+02 -0.98800914683E+03  0.98847710597E+03  0.00000000000E+00 0. -1.
<mgrwt>
<rscale>  0 0.86817529E+02</rscale>
<asrwt>0</asrwt>
<pdfrwt beam="1">  1        2 0.47288924E+00 0.24783576E+03</pdfrwt>
<pdfrwt beam="2">  1        2 0.15360604E+00 0.30412412E+02</pdfrwt>
<totfact> 0.88070663E+00</totfact>
</mgrwt>
</event>
<event>
13    1  0.2101801E-008  0.9818788E+02  0.7546771E-02  0.1304232E+00
          2   -1    0    0  502    0  0.00000000000E+00  0.00000000000E+00  0.21091689737E+04  0.21091689737E+04  0.00000000000E+00 0. -1.
          2   -1    0    0  503    0 -0.00000000000E+00 -0.00000000000E+00 -0.36051622294E+03  0.36051622294E+03  0.00000000000E+00 0. -1.
         24    2    1    2    0    0  0.14510403617E+02  0.11033311549E+02 -0.67179923902E+02  0.10596529130E+03  0.79895024922E+02 0.  0.
         25    2    1    2    0    0  0.13649763761E+03 -0.59987988592E+02  0.47477151125E+03  0.51309139279E+03  0.12499850246E+03 0.  0.
         24    2    1    2    0    0  0.80737792365E+01 -0.53724388079E+01  0.21591937982E+03  0.23095373109E+03  0.81390406757E+02 0.  0.
        -13    1    3    3    0    0  0.78542704428E+01  0.30826696626E+02  0.37438570270E+01  0.32031098240E+02  0.00000000000E+00 0.  1.
         14    1    3    3    0    0  0.66561331746E+01 -0.19793385077E+02 -0.70923780929E+02  0.73934193056E+02  0.00000000000E+00 0. -1.
        -13    1    5    5    0    0  0.28561703700E+02  0.29159403855E+02  0.90871763357E+02  0.99617865502E+02  0.00000000000E+00 0.  1.
         14    1    5    5    0    0 -0.20487924464E+02 -0.34531842663E+02  0.12504761647E+03  0.13133586559E+03  0.00000000000E+00 0. -1.
          5    1    4    4  501    0  0.14849980567E+03 -0.80973148326E+02  0.39828134226E+03  0.43273428409E+03  0.47000000000E+01 0.  1.
         -5    1    4    4    0  501 -0.12002168064E+02  0.20985159734E+02  0.76490168995E+02  0.80357108710E+02  0.47000000000E+01 0.  1.
          1    1    1    2  502    0 -0.75787458430E+02 -0.29859482592E+02  0.13569361237E+04  0.13593788917E+04  0.00000000000E+00 0. -1.
          1    1    1    2  503    0 -0.83294362031E+02  0.84186598443E+02 -0.23179434009E+03  0.26029588971E+03  0.00000000000E+00 0. -1.
<mgrwt>
<rscale>  0 0.89432329E+02</rscale>
<asrwt>0</asrwt>
<pdfrwt beam="1">  1        2 0.31017190E+00 0.81457520E+02</pdfrwt>
<pdfrwt beam="2">  1        2 0.53017093E-01 0.98187884E+02</pdfrwt>
<totfact> 0.12113829E+02</totfact>
</mgrwt>
</event>
<event>
13    1  0.2101801E-008  0.1214585E+03  0.7546771E-02  0.1287692E+00
         -3   -1    0    0    0  501  0.00000000000E+00  0.00000000000E+00  0.27841751307E+04  0.27841751307E+04  0.00000000000E+00 0.  1.
         -3   -1    0    0    0  502 -0.00000000000E+00 -0.00000000000E+00 -0.89347105940E+03  0.89347105940E+03  0.00000000000E+00 0.  1.
         24    2    1    2    0    0  0.14181718067E+03  0.15183045198E+03 -0.84076008795E+02  0.23814512144E+03  0.80496737373E+02 0.  0.
         25    2    1    2    0    0  0.16806051386E+02 -0.10854551999E+03  0.42151209879E+03  0.45316433617E+03  0.12498357044E+03 0.  0.
         24    2    1    2    0    0 -0.58841500493E+02  0.13179307260E+02 -0.15395246731E+03  0.17991570172E+03  0.70938573524E+02 0.  0.
        -11    1    5    5    0    0 -0.69923507272E+02  0.20875997468E+02 -0.14831054901E+03  0.16529102543E+03  0.00000000000E+00 0.  1.
         12    1    5    5    0    0  0.11082006779E+02 -0.76966902076E+01 -0.56419182966E+01  0.14624676286E+02  0.00000000000E+00 0. -1.
        -11    1    3    3    0    0  0.64481020990E+02  0.94396886481E+02 -0.83921865380E+02  0.14181485724E+03  0.00000000000E+00 0.  1.
         12    1    3    3    0    0  0.77336159682E+02  0.57433565503E+02 -0.15414341479E+00  0.96330264200E+02  0.00000000000E+00 0. -1.
          5    1    4    4  503    0  0.22308898861E+02 -0.12062041875E+03  0.22634373322E+03  0.25748892783E+03  0.47000000000E+01 0. -1.
         -5    1    4    4    0  503 -0.55028474748E+01  0.12074898757E+02  0.19516836557E+03  0.19567540835E+03  0.47000000000E+01 0. -1.
         -4    1    1    2    0  502 -0.52492404277E+02 -0.11694283417E+03 -0.54146219281E+03  0.55642823905E+03  0.00000000000E+00 0.  1.
         -4    1    1    2    0  501 -0.47289327289E+02  0.60478594917E+02  0.22486826415E+04  0.22499927917E+04  0.00000000000E+00 0.  1.
<mgrwt>
<rscale>  0 0.96564022E+02</rscale>
<asrwt>0</asrwt>
<pdfrwt beam="1">  1       -3 0.40943752E+00 0.76772006E+02</pdfrwt>
<pdfrwt beam="2">  1       -3 0.13139280E+00 0.12145847E+03</pdfrwt>
<totfact> 0.15516205E-02</totfact>
</mgrwt>
</event>
<event>
13    1  0.2101801E-008  0.1308423E+03  0.7546771E-02  0.1376076E+00
          2   -1    0    0  502    0  0.00000000000E+00  0.00000000000E+00  0.16762878554E+04  0.16762878554E+04  0.00000000000E+00 0. -1.
          2   -1    0    0  503    0 -0.00000000000E+00 -0.00000000000E+00 -0.51442970115E+03  0.51442970115E+03  0.00000000000E+00 0. -1.
         24    2    1    2    0    0  0.19854680018E+03 -0.34383576516E+03 -0.12576684877E+03  0.42398119847E+03  0.79365553860E+02 0.  0.
         25    2    1    2    0    0 -0.76755498398E+02  0.17444569032E+03  0.10340173659E+04  0.10588384265E+04  0.12499678020E+03 0.  0.
         24    2    1    2    0    0 -0.74706924389E+02 -0.40129867795E+01 -0.31882766418E+02  0.11422241313E+03  0.80206111071E+02 0.  0.
        -11    1    5    5    0    0 -0.14217690598E+02  0.31715842253E+02  0.46022703228E+01  0.35060209182E+02  0.00000000000E+00 0.  1.
         12    1    5    5    0    0 -0.60489233791E+02 -0.35728829032E+02 -0.36485036741E+02  0.79162203952E+02  0.00000000000E+00 0. -1.
        -11    1    3    3    0    0  0.85667578070E+02 -0.13609032187E+03 -0.11048163121E+02  0.16118800063E+03  0.00000000000E+00 0.  1.
         12    1    3    3    0    0  0.11287922211E+03 -0.20774544329E+03 -0.11471868565E+03  0.26279319784E+03  0.00000000000E+00 0. -1.
          5    1    4    4  501    0 -0.74517341476E+02  0.16266096576E+03  0.10298663330E+04  0.10453029120E+04  0.47000000000E+01 0. -1.
         -5    1    4    4    0  501 -0.22381569220E+01  0.11784724560E+02  0.41510329098E+01  0.13535514530E+02  0.47000000000E+01 0. -1.
          1    1    1    2  502    0 -0.15497463443E+02  0.28903531848E+02  0.40326860961E+03  0.40459999632E+03  0.00000000000E+00 0. -1.
          1    1    1    2  503    0 -0.31586913951E+02  0.14449952977E+03 -0.11777820607E+03  0.18907552211E+03  0.00000000000E+00 0. -1.
<mgrwt>
<rscale>  0 0.65506643E+02</rscale>
<asrwt>0</asrwt>
<pdfrwt beam="1">  1        2 0.24651292E+00 0.32796121E+02</pdfrwt>
<pdfrwt beam="2">  1        2 0.75651427E-01 0.13084231E+03</pdfrwt>
<totfact> 0.14500472E+02</totfact>
</mgrwt>
</event>
<event>
13    1  0.2101801E-008  0.4257112E+02  0.7546771E-02  0.1562655E+00
          2   -1    0    0  502    0  0.00000000000E+00  0.00000000000E+00  0.14600189249E+04  0.14600189249E+04  0.00000000000E+00 0. -1.
          2   -1    0    0  503    0 -0.00000000000E+00 -0.00000000000E+00 -0.11690599782E+04  0.11690599782E+04  0.00000000000E+00 0. -1.
         24    2    1    2    0    0  0.18805125227E+03 -0.13428393401E+02 -0.54925489523E+03  0.58642511535E+03  0.81669337901E+02 0.  0.
         25    2    1    2    0    0 -0.78873367951E+02 -0.31668332605E+02  0.13171896158E+03  0.20049771225E+03  0.12500222525E+03 0.  0.
         24    2    1    2    0    0 -0.49732225779E+02  0.67812507954E+02 -0.79888392708E+02  0.14054283475E+03  0.79361845963E+02 0.  0.
        -13    1    5    5    0    0 -0.24935084210E+02  0.72948181614E+02 -0.84953022748E+02  0.11471796590E+03  0.00000000000E+00 0.  1.
         14    1    5    5    0    0 -0.24797141570E+02 -0.51356736604E+01  0.50646300403E+01  0.25824868856E+02  0.00000000000E+00 0. -1.
        -13    1    3    3    0    0  0.19260408398E+03 -0.23857041373E+02 -0.51798329938E+03  0.55314753007E+03  0.00000000000E+00 0.  1.
         14    1    3    3    0    0 -0.45528317094E+01  0.10428647972E+02 -0.31271595852E+02  0.33277585283E+02  0.00000000000E+00 0. -1.
          5    1    4    4  501    0 -0.72281364599E+02 -0.23578063140E+02  0.83862964970E+01  0.76635114005E+02  0.47000000000E+01 0.  1.
         -5    1    4    4    0  501 -0.65920033524E+01 -0.80902694657E+01  0.12333266508E+03  0.12386259824E+03  0.47000000000E+01 0.  1.
          1    1    1    2  502    0 -0.17042377523E+02 -0.20043275031E+02  0.12438705046E+04  0.12441487080E+04  0.00000000000E+00 0. -1.
          1    1    1    2  503    0 -0.42403281021E+02 -0.26725069168E+01 -0.45548723157E+03  0.45746453268E+03  0.00000000000E+00 0. -1.
<mgrwt>
<rscale>  0 0.33466601E+02</rscale>
<asrwt>0</asrwt>
<pdfrwt beam="1">  1        2 0.21470867E+00 0.26309229E+02</pdfrwt>
<pdfrwt beam="2">  1        2 0.17192058E+00 0.42571121E+02</pdfrwt>
<totfact> 0.72404390E+01</totfact>
</mgrwt>
</event>
<event>
13    1  0.2101801E-008  0.1937334E+03  0.7546771E-02  0.1249842E+00
          2   -1    0    0  503    0  0.00000000000E+00  0.00000000000E+00  0.23565160368E+04  0.23565160368E+04  0.00000000000E+00 0. -1.
          2   -1    0    0  502    0 -0.00000000000E+00 -0.00000000000E+00 -0.17507939238E+04  0.17507939238E+04  0.00000000000E+00 0. -1.
         24    2    1    2    0    0 -0.22115590706E+03 -0.96900783093E+03 -0.80805079103E+02  0.10022939828E+04  0.10088436658E+03 0.  0.
         25    2    1    2    0    0  0.57000508561E+01 -0.48924561185E+02  0.18749700563E+03  0.23066416315E+03  0.12499890309E+03 0.  0.
         24    2    1    2    0    0  0.42073307660E+03  0.85620928286E+03  0.49406547725E+03  0.10776756538E+04  0.84696287649E+02 0.  0.
        -13    1    5    5    0    0  0.18946559793E+03  0.48121950596E+03  0.26505882260E+03  0.58114163949E+03  0.00000000000E+00 0.  1.
         14    1    5    5    0    0  0.23126747868E+03  0.37498977690E+03  0.22900665465E+03  0.49653401429E+03  0.00000000000E+00 0. -1.
        -13    1    3    3    0    0 -0.77898714113E+02 -0.36770379008E+03  0.18087343680E+02  0.37629966635E+03  0.00000000000E+00 0.  1.
         14    1    3    3    0    0 -0.14325719294E+03 -0.60130404086E+03 -0.98892422783E+02  0.62599431640E+03  0.00000000000E+00 0. -1.
          5    1    4    4  501    0 -0.42772171175E+01 -0.38160887208E+02 -0.36854898302E+01  0.38861558565E+02  0.47000000000E+01 0.  1.
         -5    1    4    4    0  501  0.99772679735E+01 -0.10763673977E+02  0.19118249546E+03  0.19180260458E+03  0.47000000000E+01 0.  1.
          1    1    1    2  502    0 -0.15944560705E+03  0.10953177201E+03 -0.88404271317E+03  0.90495946284E+03  0.00000000000E+00 0. -1.
          1    1    1    2  503    0 -0.45831613349E+02  0.52191337248E+02  0.88900742240E+03  0.89171669803E+03  0.00000000000E+00 0. -1.
<mgrwt>
<rscale>  0 0.11600181E+03</rscale>
<asrwt>0</asrwt>
<pdfrwt beam="1">  1        2 0.34654648E+00 0.69458423E+02</pdfrwt>
<pdfrwt beam="2">  1        2 0.25746969E+00 0.19373345E+03</pdfrwt>
<totfact> 0.11432764E+01</totfact>
</mgrwt>
</event>
<event>
13    1  0.2101801E-008  0.4723891E+02  0.7546771E-02  0.1508646E+00
          2   -1    0    0  502    0  0.00000000000E+00  0.00000000000E+00  0.17040841176E+04  0.17040841176E+04  0.00000000000E+00 0. -1.
          2   -1    0    0  503    0 -0.00000000000E+00 -0.00000000000E+00 -0.85657278950E+03  0.85657278950E+03  0.00000000000E+00 0. -1.
         24    2    1    2    0    0  0.96455018439E+02  0.27325610431E+02 -0.56823344499E+02  0.15168277375E+03  0.98633218565E+02 0.  0.
         25    2    1    2    0    0 -0.65286046315E+02 -0.35093198766E+02  0.46372622827E+03  0.48596411829E+03  0.12500123615E+03 0.  0.
         24    2    1    2    0    0 -0.29074680341E+02 -0.11169263024E+02  0.69969356167E+02  0.11103891182E+03  0.80398007825E+02 0.  0.
        -11    1    5    5    0    0 -0.50136270945E+02 -0.90361684719E+01  0.73649653446E+02  0.89552048875E+02  0.00000000000E+00 0.  1.
         12    1    5    5    0    0  0.21061590604E+02 -0.21330945517E+01 -0.36802972793E+01  0.21486862944E+02  0.00000000000E+00 0. -1.
        -13    1    3    3    0    0  0.13699034257E+01 -0.65703965174E+00  0.23841508663E+02  0.23889869648E+02  0.00000000000E+00 0.  1.
         14    1    3    3    0    0  0.95085115014E+02  0.27982650083E+02 -0.80664853162E+02  0.12779290410E+03  0.00000000000E+00 0. -1.
          5    1    4    4  501    0 -0.18045267368E+01  0.32859073938E+02  0.39436954442E+02  0.51578468690E+02  0.47000000000E+01 0.  1.
         -5    1    4    4    0  501 -0.63481519578E+02 -0.67952272704E+02  0.42428927383E+03  0.43438564960E+03  0.47000000000E+01 0.  1.
          1    1    1    2  502    0  0.29719694314E+02 -0.16037316197E+02  0.10902679326E+04  0.10907908235E+04  0.00000000000E+00 0. -1.
          1    1    1    2  503    0 -0.31813986098E+02  0.34974167555E+02 -0.71962884446E+03  0.72118027974E+03  0.00000000000E+00 0. -1.
<mgrwt>
<rscale>  0 0.39941057E+02</rscale>
<asrwt>0</asrwt>
<pdfrwt beam="1">  1        2 0.25060061E+00 0.33770634E+02</pdfrwt>
<pdfrwt beam="2">  1        2 0.12596659E+00 0.47238913E+02</pdfrwt>
<totfact> 0.80898195E+01</totfact>
</mgrwt>
</event>
<event>
13    1  0.2101801E-008  0.1359746E+03  0.7546771E-02  0.1228636E+00
          2   -1    0    0  503    0  0.00000000000E+00  0.00000000000E+00  0.26829557639E+04  0.26829557639E+04  0.00000000000E+00 0. -1.
          2   -1    0    0  502    0 -0.00000000000E+00 -0.00000000000E+00 -0.33264745268E+03  0.33264745268E+03  0.00000000000E+00 0. -1.
         24    2    1    2    0    0 -0.56523905885E+02 -0.54957819656E+02 -0.20034897118E+01  0.11239027032E+03  0.80076494763E+02 0.  0.
         25    2    1    2    0    0  0.33173796261E+02 -0.24611301371E+03  0.11818346707E+04  0.12140958954E+04  0.12499415171E+03 0.  0.
         24    2    1    2    0    0 -0.44625527371E+01  0.82949818657E+02 -0.44776401098E+02  0.12371743123E+03  0.80003061834E+02 0.  0.
        -11    1    5    5    0    0 -0.28341867103E+02  0.35313936019E+02  0.10980149425E+02  0.46592909219E+02  0.00000000000E+00 0.  1.
         12    1    5    5    0    0  0.23879314366E+02  0.47635882638E+02 -0.55756550524E+02  0.77124522012E+02  0.00000000000E+00 0. -1.
        -13    1    3    3    0    0 -0.54296920656E+02 -0.23654096595E+02 -0.33403516293E+02  0.67996079146E+02  0.00000000000E+00 0.  1.
         14    1    3    3    0    0 -0.22269852295E+01 -0.31303723061E+02  0.31400026581E+02  0.44394191174E+02  0.00000000000E+00 0. -1.
          5    1    4    4  501    0  0.41628899748E+02 -0.20157243549E+03  0.68750977784E+03  0.71767415773E+03  0.47000000000E+01 0. -1.
         -5    1    4    4    0  501 -0.84551034873E+01 -0.44540578220E+02  0.49432489286E+03  0.49642173762E+03  0.47000000000E+01 0. -1.
          1    1    1    2  502    0 -0.61097217055E+02  0.12545683464E+03 -0.14375084552E+03  0.20034119117E+03  0.00000000000E+00 0. -1.
          1    1    1    2  503    0  0.88909879417E+02  0.92664180068E+02  0.13590043768E+04  0.13650584285E+04  0.00000000000E+00 0. -1.
<mgrwt>
<rscale>  0 0.12920809E+03</rscale>
<asrwt>0</asrwt>
<pdfrwt beam="1">  1        2 0.39455231E+00 0.13597457E+03</pdfrwt>
<pdfrwt beam="2">  1        2 0.48918744E-01 0.12277834E+03</pdfrwt>
<totfact> 0.64445755E+01</totfact>
</mgrwt>
</event>
<event>
13    1  0.2101801E-008  0.6669409E+02  0.7546771E-02  0.1527352E+00
         -1   -1    0    0    0  501 -0.00000000000E+00  0.00000000000E+00  0.73946998361E+03  0.73946998361E+03  0.00000000000E+00 0.  1.
          2   -1    0    0  503    0  0.00000000000E+00 -0.00000000000E+00 -0.98848684610E+03  0.98848684610E+03  0.00000000000E+00 0. -1.
         24    2    1    2    0    0 -0.28911284126E+03  0.11235929794E+03  0.27946631447E+03  0.42525773667E+03  0.80820015186E+02 0.  0.
         25    2    1    2    0    0  0.38089912686E+03  0.88021608049E+01 -0.42019540644E+03  0.58081918456E+03  0.12500049074E+03 0.  0.
         24    2    1    2    0    0 -0.47599400053E+02 -0.95917921013E+02  0.15568732927E+03  0.20410818823E+03  0.77172906825E+02 0.  0.
        -11    1    5    5    0    0 -0.58953470321E+02 -0.55571862224E+02  0.63831070653E+02  0.10314140349E+03  0.00000000000E+00 0.  1.
         12    1    5    5    0    0  0.11354070269E+02 -0.40346058789E+02  0.91856258621E+02  0.10096678473E+03  0.00000000000E+00 0. -1.
        -13    1    3    3    0    0 -0.34147238119E+02 -0.12807892560E+02  0.29894658417E+02  0.47156829673E+02  0.00000000000E+00 0.  1.
         14    1    3    3    0    0 -0.25496560315E+03  0.12516719050E+03  0.24957165605E+03  0.37810090699E+03  0.00000000000E+00 0. -1.
          5    1    4    4  502    0  0.31126703982E+03 -0.16341497007E+02 -0.26634879083E+03  0.41002192988E+03  0.47000000000E+01 0.  1.
         -5    1    4    4    0  502  0.69632087037E+02  0.25143657812E+02 -0.15384661561E+03  0.17079725468E+03  0.47000000000E+01 0.  1.
          1    1    1    2  503    0  0.20079352298E+02 -0.64826286691E+01 -0.38173159997E+03  0.38231429385E+03  0.00000000000E+00 0. -1.
         -2    1    1    2    0  501 -0.64266237839E+02 -0.18760909063E+02  0.11775650017E+03  0.13545742641E+03  0.00000000000E+00 0.  1.
<mgrwt>
<rscale>  0 0.37513161E+02</rscale>
<asrwt>0</asrwt>
<pdfrwt beam="2">  1        2 0.14536571E+00 0.21099878E+02</pdfrwt>
<pdfrwt beam="1">  1       -1 0.10874559E+00 0.66694091E+02</pdfrwt>
<totfact> 0.33053612E+01</totfact>
</mgrwt>
</event>
<event>
13    1  0.2101801E-008  0.1115039E+03  0.7546771E-02  0.1358858E+00
          2   -1    0    0  503    0  0.00000000000E+00  0.00000000000E+00  0.15084766051E+04  0.15084766051E+04  0.00000000000E+00 0. -1.
          2   -1    0    0  502    0 -0.00000000000E+00 -0.00000000000E+00 -0.14711430603E+04  0.14711430603E+04  0.00000000000E+00 0. -1.
         24    2    1    2    0    0 -0.45594539628E+02  0.16340659378E+03  0.42563832501E+03  0.46502138519E+03  0.79349404757E+02 0.  0.
         25    2    1    2    0    0  0.51812812089E+02 -0.13933286847E+03 -0.50425669478E+03  0.54036749946E+03  0.12499601799E+03 0.  0.
         24    2    1    2    0    0  0.76638281519E+02 -0.20938635471E+02  0.24201373139E+02  0.11666738643E+03  0.81937292763E+02 0.  0.
        -11    1    5    5    0    0  0.43018060192E+02 -0.52383919400E+02  0.18631699237E+02  0.70297714976E+02  0.00000000000E+00 0.  1.
         12    1    5    5    0    0  0.33620221327E+02  0.31445283929E+02  0.55696739018E+01  0.46369671455E+02  0.00000000000E+00 0. -1.
        -13    1    3    3    0    0 -0.38991622319E+02  0.24452166289E+02  0.13875998562E+03  0.14619366831E+03  0.00000000000E+00 0.  1.
         14    1    3    3    0    0 -0.66029173089E+01  0.13895442749E+03  0.28687833939E+03  0.31882771688E+03  0.00000000000E+00 0. -1.
          5    1    4    4  501    0  0.92050605058E+02 -0.79558234507E+02 -0.32975304586E+03  0.35151385154E+03  0.47000000000E+01 0.  1.
         -5    1    4    4    0  501 -0.40237792969E+02 -0.59774633966E+02 -0.17450364892E+03  0.18885364792E+03  0.47000000000E+01 0.  1.
          1    1    1    2  502    0  0.23318908450E+02 -0.37787703422E+02 -0.87914466557E+03  0.88026531513E+03  0.00000000000E+00 0. -1.
          1    1    1    2  503    0 -0.10617546243E+03  0.34652613587E+02  0.97089520706E+03  0.97729807916E+03  0.00000000000E+00 0. -1.
<mgrwt>
<rscale>  0 0.70364591E+02</rscale>
<asrwt>0</asrwt>
<pdfrwt beam="1">  1        2 0.22183479E+00 0.11150386E+03</pdfrwt>
<pdfrwt beam="2">  1        2 0.21634457E+00 0.44403626E+02</pdfrwt>
<totfact> 0.43221009E+01</totfact>
</mgrwt>
</event>
<event>
13    1  0.2101801E-008  0.1182733E+03  0.7546771E-02  0.1399518E+00
         -1   -1    0    0    0  501 -0.00000000000E+00  0.00000000000E+00  0.48838004268E+03  0.48838004268E+03  0.00000000000E+00 0.  1.
          2   -1    0    0  503    0  0.00000000000E+00 -0.00000000000E+00 -0.21128602793E+04  0.21128602793E+04  0.00000000000E+00 0. -1.
         24    2    1    2    0    0 -0.18286005135E+02 -0.59940062110E+02 -0.30272978437E+03  0.31968151400E+03  0.81386479338E+02 0.  0.
         25    2    1    2    0    0 -0.11502107879E+03  0.29276270408E+02 -0.59276323720E+02  0.18227697762E+03  0.12499706173E+03 0.  0.
         24    2    1    2    0    0 -0.64952664862E+01  0.87620672224E+02 -0.30182785525E+03  0.32430788439E+03  0.79724393897E+02 0.  0.
        -11    1    5    5    0    0 -0.32003955437E+02  0.57261303480E+01 -0.94530659239E+02  0.99965430367E+02  0.00000000000E+00 0.  1.
         12    1    5    5    0    0  0.25508688950E+02  0.81894541876E+02 -0.20729719602E+03  0.22434245402E+03  0.00000000000E+00 0. -1.
        -13    1    3    3    0    0 -0.17709226776E+02  0.70634657976E+01 -0.16931876278E+03  0.17038882795E+03  0.00000000000E+00 0.  1.
         14    1    3    3    0    0 -0.57677835914E+00 -0.67003527907E+02 -0.13341102159E+03  0.14929268605E+03  0.00000000000E+00 0. -1.
          5    1    4    4  502    0 -0.12453302290E+03  0.40019601090E+02 -0.10606536181E+02  0.13131881386E+03  0.47000000000E+01 0. -1.
         -5    1    4    4    0  502  0.95119441054E+01 -0.10743330682E+02 -0.48669787539E+02  0.50958163761E+02  0.47000000000E+01 0. -1.
          1    1    1    2  503    0  0.11004477510E+03 -0.61018130071E+02 -0.13643572563E+04  0.13701473598E+04  0.00000000000E+00 0. -1.
         -2    1    1    2    0  501  0.29757575311E+02  0.40612495495E+01  0.40371098304E+03  0.40482658617E+03  0.00000000000E+00 0.  1.
<mgrwt>
<rscale>  0 0.59599941E+02</rscale>
<asrwt>0</asrwt>
<pdfrwt beam="2">  1        2 0.31071475E+00 0.11827329E+03</pdfrwt>
<pdfrwt beam="1">  1       -1 0.71820594E-01 0.30033432E+02</pdfrwt>
<totfact> 0.19609295E+01</totfact>
</mgrwt>
</event>
<event>
13    1  0.2101801E-008  0.1204404E+03  0.7546771E-02  0.1424261E+00
          2   -1    0    0  502    0  0.00000000000E+00  0.00000000000E+00  0.12362767988E+04  0.12362767988E+04  0.00000000000E+00 0. -1.
          2   -1    0    0  503    0 -0.00000000000E+00 -0.00000000000E+00 -0.18814525779E+04  0.18814525779E+04  0.00000000000E+00 0. -1.
         24    2    1    2    0    0  0.10560915136E+03  0.13787298922E+02 -0.56823016288E+03  0.58358130094E+03  0.79613028703E+02 0.  0.
         25    2    1    2    0    0 -0.30706195607E+02 -0.17052785892E+03  0.47210531306E+03  0.51819890838E+03  0.12499624357E+03 0.  0.
         24    2    1    2    0    0 -0.74299001341E+02  0.12888639916E+02  0.18365354130E+03  0.21482175454E+03  0.82056714265E+02 0.  0.
        -13    1    5    5    0    0 -0.79907234300E+02  0.13587853679E+02  0.18985379691E+03  0.20643221663E+03  0.00000000000E+00 0.  1.
         14    1    5    5    0    0  0.56082329588E+01 -0.69921376262E+00 -0.62002556127E+01  0.83895379175E+01  0.00000000000E+00 0. -1.
        -13    1    3    3    0    0  0.19066170705E+02  0.21142845408E+02 -0.45417070118E+02  0.53602696158E+02  0.00000000000E+00 0.  1.
         14    1    3    3    0    0  0.86542980658E+02 -0.73555464863E+01 -0.52281309276E+03  0.52997860478E+03  0.00000000000E+00 0. -1.
          5    1    4    4  501    0  0.66128833636E+01 -0.13648491706E+03  0.43320602130E+03  0.45427019460E+03  0.47000000000E+01 0. -1.
         -5    1    4    4    0  501 -0.37319078971E+02 -0.34042941862E+02  0.38899291761E+02  0.63928713778E+02  0.47000000000E+01 0. -1.
          1    1    1    2  502    0 -0.54904103316E+01  0.23699759675E+02  0.53107892659E+03  0.53163582412E+03  0.00000000000E+00 0. -1.
          1    1    1    2  503    0  0.48864559175E+01  0.12015216041E+03 -0.12637833971E+04  0.12694915888E+04  0.00000000000E+00 0. -1.
<mgrwt>
<rscale>  0 0.54129508E+02</rscale>
<asrwt>0</asrwt>
<pdfrwt beam="1">  1        2 0.18180541E+00 0.24327417E+02</pdfrwt>
<pdfrwt beam="2">  1        2 0.27668420E+00 0.12044039E+03</pdfrwt>
<totfact> 0.38258314E+01</totfact>
</mgrwt>
</event>
<event>
13    1  0.2101801E-008  0.9726922E+02  0.7546771E-02  0.1379433E+00
         -3   -1    0    0    0  501 -0.00000000000E+00  0.00000000000E+00  0.96163753261E+03  0.96163753261E+03  0.00000000000E+00 0.  1.
          2   -1    0    0  503    0  0.00000000000E+00 -0.00000000000E+00 -0.51947579501E+03  0.51947579501E+03  0.00000000000E+00 0. -1.
         24    2    1    2    0    0  0.33477717483E+02 -0.93833951043E+00  0.27390235633E+03  0.28749620484E+03  0.80684130684E+02 0.  0.
         25    2    1    2    0    0 -0.21500730735E+03  0.12704869900E+03 -0.20083620823E+03  0.34399006656E+03  0.12499787690E+03 0.  0.
         24    2    1    2    0    0  0.14019325545E+03 -0.10293918469E+03 -0.16552622817E+02  0.19381025481E+03  0.83891602240E+02 0.  0.
        -13    1    3    3    0    0  0.39965024513E+02 -0.34610481370E+02  0.15653590548E+03  0.16522281413E+03  0.00000000000E+00 0.  1.
         14    1    3    3    0    0 -0.64873070291E+01  0.33672141859E+02  0.11736645085E+03  0.12227339071E+03  0.00000000000E+00 0. -1.
        -13    1    5    5    0    0  0.13008300253E+03 -0.51847697346E+02 -0.20729217456E+02  0.14156084107E+03  0.00000000000E+00 0.  1.
         14    1    5    5    0    0  0.10110252925E+02 -0.51091487347E+02  0.41765946394E+01  0.52249413741E+02  0.00000000000E+00 0. -1.
          5    1    4    4  502    0 -0.17228595224E+03  0.40928612330E+02 -0.16250068964E+03  0.24038753042E+03  0.47000000000E+01 0.  1.
         -5    1    4    4    0  502 -0.42721355106E+02  0.86120086669E+02 -0.38335518581E+02  0.10360253614E+03  0.47000000000E+01 0.  1.
          1    1    1    2  503    0 -0.26606477241E+02  0.33678994228E+02 -0.12778307118E+03  0.13479871129E+03  0.00000000000E+00 0. -1.
         -4    1    1    2    0  501  0.67942811652E+02 -0.56850169023E+02  0.51343128349E+03  0.52101809013E+03  0.00000000000E+00 0.  1.
<mgrwt>
<rscale>  0 0.64613116E+02</rscale>
<asrwt>0</asrwt>
<pdfrwt beam="2">  1        2 0.76393500E-01 0.42920616E+02</pdfrwt>
<pdfrwt beam="1">  1       -3 0.14141728E+00 0.97269219E+02</pdfrwt>
<totfact> 0.15839680E+01</totfact>
</mgrwt>
</event>
<event>
13    1  0.2101801E-008  0.3799204E+02  0.7546771E-02  0.1544992E+00
          2   -1    0    0  502    0  0.00000000000E+00  0.00000000000E+00  0.32085753251E+04  0.32085753251E+04  0.00000000000E+00 0. -1.
          2   -1    0    0  503    0 -0.00000000000E+00 -0.00000000000E+00 -0.41049613433E+04  0.41049613433E+04  0.00000000000E+00 0. -1.
         24    2    1    2    0    0  0.19638689806E+04  0.88777572114E+02 -0.21640510338E+04  0.29255432607E+04  0.10499363457E+03 0.  0.
         25    2    1    2    0    0 -0.13328694133E+04 -0.27595969197E+03  0.99149458973E+02  0.13704564543E+04  0.12500261302E+03 0.  0.
         24    2    1    2    0    0 -0.63373608679E+03  0.11905596409E+03 -0.26482216698E+03  0.70362458773E+03  0.95713269934E+02 0.  0.
        -11    1    3    3    0    0  0.84256150942E+03  0.47151154962E+02 -0.10053808029E+04  0.13126018769E+04  0.00000000000E+00 0.  1.
         12    1    3    3    0    0  0.11213074712E+04  0.41626417152E+02 -0.11586702309E+04  0.16129413838E+04  0.00000000000E+00 0. -1.
        -13    1    5    5    0    0 -0.31235896416E+03  0.79946302705E+02 -0.17861370685E+03  0.36859515743E+03  0.00000000000E+00 0.  1.
         14    1    5    5    0    0 -0.32137712263E+03  0.39109661388E+02 -0.86208460122E+02  0.33502943029E+03  0.00000000000E+00 0. -1.
          5    1    4    4  501    0 -0.26421813229E+03 -0.10518285714E+03  0.10649146023E+02  0.28462281914E+03  0.47000000000E+01 0. -1.
         -5    1    4    4    0  501 -0.10686512810E+04 -0.17077683483E+03  0.88500312949E+02  0.10858336351E+04  0.47000000000E+01 0. -1.
          1    1    1    2  502    0  0.11330162198E+02  0.36261708014E+02  0.18728136749E+04  0.18731989604E+04  0.00000000000E+00 0. -1.
          1    1    1    2  503    0 -0.85936426664E+01  0.31864447754E+02 -0.43947595139E+03  0.44071340526E+03  0.00000000000E+00 0. -1.
<mgrwt>
<rscale>  0 0.35409729E+02</rscale>
<asrwt>0</asrwt>
<pdfrwt beam="1">  1        2 0.47184932E+00 0.37992042E+02</pdfrwt>
<pdfrwt beam="2">  1        2 0.60367078E+00 0.33002935E+02</pdfrwt>
<totfact> 0.33322666E-01</totfact>
</mgrwt>
</event>
<event>
13    1  0.2101801E-008  0.4786876E+02  0.7546771E-02  0.1464735E+00
          2   -1    0    0  503    0  0.00000000000E+00  0.00000000000E+00  0.11668012223E+04  0.11668012223E+04  0.00000000000E+00 0. -1.
          2   -1    0    0  502    0 -0.00000000000E+00 -0.00000000000E+00 -0.40475796380E+04  0.40475796380E+04  0.00000000000E+00 0. -1.
         24    2    1    2    0    0 -0.79423433338E+02  0.19891487741E+02 -0.10218900677E+04  0.10284557960E+04  0.82208641622E+02 0.  0.
         25    2    1    2    0    0  0.64885873424E+02  0.10557784406E+03  0.41455437781E+03  0.45037383782E+03  0.12499761562E+03 0.  0.
         24    2    1    2    0    0  0.35963946008E+02 -0.96398436735E+02 -0.17385780825E+04  0.17435236563E+04  0.81455063578E+02 0.  0.
        -11    1    5    5    0    0 -0.22912013661E+02 -0.52793025727E+02 -0.69691539844E+03  0.69928759213E+03  0.00000000000E+00 0.  1.
         12    1    5    5    0    0  0.58875959668E+02 -0.43605411009E+02 -0.10416626840E+04  0.10442360642E+04  0.00000000000E+00 0. -1.
        -11    1    3    3    0    0  0.26977001737E+01 -0.13050840433E+02 -0.40844345137E+03  0.40866080676E+03  0.00000000000E+00 0.  1.
         12    1    3    3    0    0 -0.82121133512E+02  0.32942328174E+02 -0.61344661637E+03  0.61979498925E+03  0.00000000000E+00 0. -1.
          5    1    4    4  501    0  0.49306889627E+02  0.13411852256E+03  0.34495561190E+03  0.37341051356E+03  0.47000000000E+01 0.  1.
         -5    1    4    4    0  501  0.15578983797E+02 -0.28540678499E+02  0.69598765913E+02  0.76963324265E+02  0.47000000000E+01 0.  1.
          1    1    1    2  502    0  0.21810460188E+02 -0.42648242258E+02 -0.12622866687E+04  0.12631952354E+04  0.00000000000E+00 0. -1.
          1    1    1    2  503    0 -0.43236846282E+02  0.13577347194E+02  0.72742202539E+03  0.72883233480E+03  0.00000000000E+00 0. -1.
<mgrwt>
<rscale>  0 0.46576196E+02</rscale>
<asrwt>0</asrwt>
<pdfrwt beam="1">  1        2 0.17158842E+00 0.45318531E+02</pdfrwt>
<pdfrwt beam="2">  1        2 0.59523230E+00 0.47868763E+02</pdfrwt>
<totfact> 0.31277099E+00</totfact>
</mgrwt>
</event>
<event>
13    1  0.2101801E-008  0.1012416E+03  0.7546771E-02  0.1289924E+00
          2   -1    0    0  503    0  0.00000000000E+00  0.00000000000E+00  0.26462071839E+04  0.26462071839E+04  0.00000000000E+00 0. -1.
         -1   -1    0    0    0  501 -0.00000000000E+00 -0.00000000000E+00 -0.12882876272E+04  0.12882876272E+04  0.00000000000E+00 0.  1.
         24    2    1    2    0    0 -0.83654611620E+02  0.40780899126E+03 -0.58987405653E+03  0.72633852792E+03  0.79435427763E+02 0.  0.
         25    2    1    2    0    0  0.90248085378E+02 -0.56291243223E+03  0.35278678031E+03  0.68198249178E+03  0.12500593370E+03 0.  0.
         24    2    1    2    0    0  0.52976088025E+01 -0.39999404713E+02 -0.14043706496E+03  0.16735280916E+03  0.81586619506E+02 0.  0.
        -11    1    3    3    0    0 -0.87431466379E+02  0.39379327544E+03 -0.58581844188E+03  0.71126693438E+03  0.00000000000E+00 0.  1.
         12    1    3    3    0    0  0.37768547592E+01  0.14015715812E+02 -0.40556146447E+01  0.15071593537E+02  0.00000000000E+00 0. -1.
        -13    1    5    5    0    0  0.31945070082E+02 -0.42718706809E+02 -0.50291127802E+02  0.73311478976E+02  0.00000000000E+00 0.  1.
         14    1    5    5    0    0 -0.26647461279E+02  0.27193020961E+01 -0.90145937160E+02  0.94041330185E+02  0.00000000000E+00 0. -1.
          5    1    4    4  502    0  0.63626294281E+01 -0.32437473271E+03  0.24727322447E+03  0.40795292353E+03  0.47000000000E+01 0. -1.
         -5    1    4    4    0  502  0.83885455950E+02 -0.23853769951E+03  0.10551355585E+03  0.27402956825E+03  0.47000000000E+01 0. -1.
          1    1    1    2  503    0  0.18240264598E+02  0.99507196025E+02  0.20377869997E+04  0.20402966072E+04  0.00000000000E+00 0. -1.
         -2    1    1    2    0  501 -0.30131347158E+02  0.95595649661E+02 -0.30234310176E+03  0.31852437505E+03  0.00000000000E+00 0.  1.
<mgrwt>
<rscale>  0 0.95558245E+02</rscale>
<asrwt>0</asrwt>
<pdfrwt beam="1">  1        2 0.38914812E+00 0.10124163E+03</pdfrwt>
<pdfrwt beam="2">  1       -1 0.18945406E+00 0.90193904E+02</pdfrwt>
<totfact> 0.10953574E+00</totfact>
</mgrwt>
</event>
<event>
13    1  0.2101801E-008  0.1058842E+03  0.7546771E-02  0.1398972E+00
          2   -1    0    0  503    0  0.00000000000E+00  0.00000000000E+00  0.12811906165E+04  0.12811906165E+04  0.00000000000E+00 0. -1.
          2   -1    0    0  502    0 -0.00000000000E+00 -0.00000000000E+00 -0.18150324679E+04  0.18150324679E+04  0.00000000000E+00 0. -1.
         24    2    1    2    0    0  0.89086030849E+01  0.70697720353E+01 -0.71884095340E+03  0.72350096031E+03  0.81190999542E+02 0.  0.
         25    2    1    2    0    0 -0.39614243445E+02 -0.75288452606E+02  0.11650363499E+03  0.19088048916E+03  0.12499849918E+03 0.  0.
         24    2    1    2    0    0 -0.74050237661E+02  0.10124643394E+03 -0.18965714794E+03  0.24150556878E+03  0.81368469942E+02 0.  0.
        -11    1    5    5    0    0  0.11692299589E+02  0.40514534765E+02 -0.74581778289E+02  0.85677179282E+02  0.00000000000E+00 0.  1.
         12    1    5    5    0    0 -0.85742537249E+02  0.60731899180E+02 -0.11507536965E+03  0.15582838949E+03  0.00000000000E+00 0. -1.
        -11    1    3    3    0    0  0.44988880419E+02  0.79287885968E+00 -0.36201999527E+03  0.36480557150E+03  0.00000000000E+00 0.  1.
         12    1    3    3    0    0 -0.36080277334E+02  0.62768931756E+01 -0.35682095813E+03  0.35869538882E+03  0.00000000000E+00 0. -1.
          5    1    4    4  501    0 -0.16123435783E+02 -0.10859545843E+03  0.89977504975E+02  0.14202457596E+03  0.47000000000E+01 0. -1.
         -5    1    4    4    0  501 -0.23490807662E+02  0.33307005828E+02  0.26526130017E+02  0.48855913209E+02  0.47000000000E+01 0. -1.
          1    1    1    2  502    0  0.11773489744E+03 -0.64120777866E+02 -0.83548847338E+03  0.84617608650E+03  0.00000000000E+00 0. -1.
          1    1    1    2  503    0 -0.12979019417E+02  0.31093024493E+02  0.10936410883E+04  0.10941599797E+04  0.00000000000E+00 0. -1.
<mgrwt>
<rscale>  0 0.59729192E+02</rscale>
<asrwt>0</asrwt>
<pdfrwt beam="1">  1        2 0.18841039E+00 0.33693191E+02</pdfrwt>
<pdfrwt beam="2">  1        2 0.26691654E+00 0.10588419E+03</pdfrwt>
<totfact> 0.38758619E+01</totfact>
</mgrwt>
</event>
<event>
13    1  0.2101801E-008  0.5218584E+02  0.7546771E-02  0.1486893E+00
          2   -1    0    0  503    0  0.00000000000E+00  0.00000000000E+00  0.32972878346E+04  0.32972878346E+04  0.00000000000E+00 0. -1.
          2   -1    0    0  502    0 -0.00000000000E+00 -0.00000000000E+00 -0.30202187735E+04  0.30202187735E+04  0.00000000000E+00 0. -1.
         24    2    1    2    0    0  0.50180251669E+03 -0.30494036924E+03  0.52568839123E+03  0.79006428349E+03  0.55307258341E+02 0.  0.
         25    2    1    2    0    0 -0.14532996137E+03  0.19028809570E+03  0.45236316088E+03  0.52685503477E+03  0.12495375665E+03 0.  0.
         24    2    1    2    0    0 -0.27627325568E+03  0.13218580891E+03  0.31314288313E+03  0.44564022840E+03  0.82077695098E+02 0.  0.
        -13    1    3    3    0    0  0.25027487447E+03 -0.14648775201E+03  0.29609398883E+03  0.41444882012E+03  0.00000000000E+00 0.  1.
         14    1    3    3    0    0  0.25152764223E+03 -0.15845261723E+03  0.22959440240E+03  0.37561546337E+03  0.00000000000E+00 0. -1.
        -13    1    5    5    0    0 -0.14003350131E+03  0.98842042829E+02  0.21247844044E+03  0.27299490576E+03  0.00000000000E+00 0.  1.
         14    1    5    5    0    0 -0.13623975437E+03  0.33343766076E+02  0.10066444270E+03  0.17264532264E+03  0.00000000000E+00 0. -1.
          5    1    4    4  501    0 -0.13718630470E+03  0.12522535155E+03  0.23391840433E+03  0.29873295893E+03  0.47000000000E+01 0. -1.
         -5    1    4    4    0  501 -0.81436566758E+01  0.65062744148E+02  0.21844475655E+03  0.22812207583E+03  0.47000000000E+01 0. -1.
          1    1    1    2  502    0 -0.52021626602E+02  0.40830223327E+01 -0.27841136072E+04  0.27846025746E+04  0.00000000000E+00 0. -1.
          1    1    1    2  503    0 -0.28177673032E+02 -0.21616557691E+02  0.17699882331E+04  0.17703444868E+04  0.00000000000E+00 0. -1.
<mgrwt>
<rscale>  0 0.43050403E+02</rscale>
<asrwt>0</asrwt>
<pdfrwt beam="1">  1        2 0.48489527E+00 0.35514178E+02</pdfrwt>
<pdfrwt beam="2">  1        2 0.44414982E+00 0.52185839E+02</pdfrwt>
<totfact> 0.11729612E+00</totfact>
</mgrwt>
</event>
<event>
13    1  0.2101801E-008  0.7906077E+02  0.7546771E-02  0.1340827E+00
          2   -1    0    0  502    0  0.00000000000E+00  0.00000000000E+00  0.18138523089E+04  0.18138523089E+04  0.00000000000E+00 0. -1.
          2   -1    0    0  503    0 -0.00000000000E+00 -0.00000000000E+00 -0.16596732114E+04  0.16596732114E+04  0.00000000000E+00 0. -1.
         24    2    1    2    0    0 -0.22849224304E+03  0.48043486014E+02 -0.39629274245E+03  0.46684254484E+03  0.79857011447E+02 0.  0.
         25    2    1    2    0    0  0.18902054075E+03 -0.91843106750E+02  0.64929310000E+03  0.69381027272E+03  0.12500897465E+03 0.  0.
         24    2    1    2    0    0  0.14676839599E+03 -0.43546632199E+02  0.16062820457E+03  0.23614792774E+03  0.80790794245E+02 0.  0.
        -11    1    5    5    0    0  0.13160755905E+03 -0.57701683628E+02  0.16046667990E+03  0.21540563886E+03  0.00000000000E+00 0.  1.
         12    1    5    5    0    0  0.15160836943E+02  0.14155051430E+02  0.16152466365E+00  0.20742288881E+02  0.00000000000E+00 0. -1.
        -11    1    3    3    0    0  0.16491563170E+01  0.69289290617E+01 -0.40456219837E+02  0.41078406713E+02  0.00000000000E+00 0.  1.
         12    1    3    3    0    0 -0.23014139936E+03  0.41114556952E+02 -0.35583652261E+03  0.42576413813E+03  0.00000000000E+00 0. -1.
          5    1    4    4  501    0  0.28094089610E+02 -0.43515849972E+02  0.52913356970E+02  0.74194476989E+02  0.47000000000E+01 0. -1.
         -5    1    4    4    0  501  0.16092645114E+03 -0.48327256779E+02  0.59637974303E+03  0.61961579573E+03  0.47000000000E+01 0. -1.
          1    1    1    2  502    0 -0.70988818291E+02  0.17195191296E+02  0.90583053297E+03  0.90877062088E+03  0.00000000000E+00 0. -1.
          1    1    1    2  503    0 -0.36307875408E+02  0.70151061639E+02 -0.11652799976E+04  0.11679541541E+04  0.00000000000E+00 0. -1.
<mgrwt>
<rscale>  0 0.75991656E+02</rscale>
<asrwt>0</asrwt>
<pdfrwt beam="1">  1        2 0.26674299E+00 0.73041679E+02</pdfrwt>
<pdfrwt beam="2">  1        2 0.24406959E+00 0.79060775E+02</pdfrwt>
<totfact> 0.24672517E+01</totfact>
</mgrwt>
</event>
<event>
13    1  0.2101801E-008  0.7474847E+02  0.7546771E-02  0.1421740E+00
          2   -1    0    0  503    0  0.00000000000E+00  0.00000000000E+00  0.10391048547E+04  0.10391048547E+04  0.00000000000E+00 0. -1.
          2   -1    0    0  502    0 -0.00000000000E+00 -0.00000000000E+00 -0.21478134400E+04  0.21478134400E+04  0.00000000000E+00 0. -1.
         24    2    1    2    0    0  0.25911485942E+02 -0.12871802148E+03 -0.43545694371E+03  0.46195491227E+03  0.80869382240E+02 0.  0.
         25    2    1    2    0    0 -0.75916099121E+02  0.20470507177E+03 -0.80970129598E+02  0.26428692794E+03  0.12499599145E+03 0.  0.
         24    2    1    2    0    0 -0.61822917797E+01 -0.12423187796E+03 -0.10116168251E+03  0.17818010142E+03  0.77734691754E+02 0.  0.
        -11    1    5    5    0    0 -0.21711567139E+02 -0.12817363505E+03 -0.95010147739E+02  0.16101801465E+03  0.00000000000E+00 0.  1.
         12    1    5    5    0    0  0.15529275359E+02  0.39417570949E+01 -0.61515347736E+01  0.17162086768E+02  0.00000000000E+00 0. -1.
        -13    1    3    3    0    0  0.50626937162E+02 -0.10690368125E+03 -0.29839856867E+03  0.32098783406E+03  0.00000000000E+00 0.  1.
         14    1    3    3    0    0 -0.24715451220E+02 -0.21814340228E+02 -0.13705837505E+03  0.14096707821E+03  0.00000000000E+00 0. -1.
          5    1    4    4  501    0  0.29244533476E+02  0.85219009809E+02 -0.45921042490E+02  0.10123415686E+03  0.47000000000E+01 0.  1.
         -5    1    4    4    0  501 -0.10516063260E+03  0.11948606196E+03 -0.35049087107E+02  0.16305277108E+03  0.47000000000E+01 0.  1.
          1    1    1    2  502    0  0.32830009742E+02 -0.22785230772E+02 -0.13849588977E+04  0.13855353206E+04  0.00000000000E+00 0. -1.
          1    1    1    2  503    0  0.23356895216E+02  0.71030058434E+02  0.89383906823E+03  0.89696103240E+03  0.00000000000E+00 0. -1.
<mgrwt>
<rscale>  0 0.54654481E+02</rscale>
<asrwt>0</asrwt>
<pdfrwt beam="1">  1        2 0.15280954E+00 0.74748471E+02</pdfrwt>
<pdfrwt beam="2">  1        2 0.31585491E+00 0.39962186E+02</pdfrwt>
<totfact> 0.38200637E+01</totfact>
</mgrwt>
</event>
<event>
13    1  0.2101801E-008  0.1278755E+03  0.7546771E-02  0.1244053E+00
         -1   -1    0    0    0  501 -0.00000000000E+00  0.00000000000E+00  0.13487001368E+04  0.13487001368E+04  0.00000000000E+00 0.  1.
          2   -1    0    0  503    0  0.00000000000E+00 -0.00000000000E+00 -0.95104144573E+03  0.95104144573E+03  0.00000000000E+00 0. -1.
         24    2    1    2    0    0 -0.87786988510E+02  0.71820222818E+02 -0.17629242468E+03  0.22536230066E+03  0.82731177918E+02 0.  0.
         25    2    1    2    0    0 -0.82279244884E+01  0.24093592508E+03  0.43764751536E+02  0.27506074887E+03  0.12500097343E+03 0.  0.
         24    2    1    2    0    0  0.11657665178E+03 -0.13367315073E+03 -0.15047978962E+03  0.24441811265E+03  0.75082752602E+02 0.  0.
        -11    1    3    3    0    0 -0.86036458611E+02  0.87239056754E+02 -0.16748558599E+03  0.20751950932E+03  0.00000000000E+00 0.  1.
         12    1    3    3    0    0 -0.17505298985E+01 -0.15418833936E+02 -0.88068386859E+01  0.17842791332E+02  0.00000000000E+00 0. -1.
        -13    1    5    5    0    0  0.11419027734E+03 -0.14188368795E+03 -0.13489896463E+03  0.22664538602E+03  0.00000000000E+00 0.  1.
         14    1    5    5    0    0  0.23863744468E+01  0.82105372203E+01 -0.15580824992E+02  0.17772726630E+02  0.00000000000E+00 0. -1.
          5    1    4    4  502    0  0.49419744264E+01  0.24243809177E+03  0.63610478235E+02  0.25073698250E+03  0.47000000000E+01 0.  1.
         -5    1    4    4    0  502 -0.13169898915E+02 -0.15021666953E+01 -0.19845726699E+02  0.24323766370E+02  0.47000000000E+01 0.  1.
          1    1    1    2  503    0 -0.86911266844E+02 -0.69891517396E+02 -0.42626814814E+03  0.44061653013E+03  0.00000000000E+00 0. -1.
         -2    1    1    2    0  501  0.66349528060E+02 -0.10919147977E+03  0.11069343020E+04  0.11142838903E+04  0.00000000000E+00 0.  1.
<mgrwt>
<rscale>  0 0.11942212E+03</rscale>
<asrwt>0</asrwt>
<pdfrwt beam="2">  1        2 0.13985904E+00 0.11152754E+03</pdfrwt>
<pdfrwt beam="1">  1       -1 0.19833826E+00 0.12787552E+03</pdfrwt>
<totfact> 0.65784797E+00</totfact>
</mgrwt>
</event>
<event>
13    1  0.2101801E-008  0.1966316E+03  0.7546771E-02  0.1250892E+00
          4   -1    0    0  503    0 -0.00000000000E+00  0.00000000000E+00  0.36068423308E+03  0.36068423308E+03  0.00000000000E+00 0. -1.
          2   -1    0    0  502    0  0.00000000000E+00 -0.00000000000E+00 -0.16963225144E+04  0.16963225144E+04  0.00000000000E+00 0. -1.
         24    2    1    2    0    0  0.26363905328E+03 -0.37893813230E+02  0.15035980965E+02  0.27935970446E+03  0.82911231161E+02 0.  0.
         25    2    1    2    0    0 -0.13592465870E+03  0.12803669051E+03 -0.44378096761E+03  0.49742789630E+03  0.12499623131E+03 0.  0.
         24    2    1    2    0    0 -0.44504316961E+02  0.31242835732E+02 -0.15946466927E+03  0.18677731436E+03  0.80622797044E+02 0.  0.
        -11    1    3    3    0    0  0.16421265789E+02 -0.35156732963E+01 -0.21308719421E+02  0.27130784216E+02  0.00000000000E+00 0.  1.
         12    1    3    3    0    0  0.24721778750E+03 -0.34378139934E+02  0.36344700386E+02  0.25222892024E+03  0.00000000000E+00 0. -1.
        -13    1    5    5    0    0 -0.17622032492E+02 -0.12119988819E+01 -0.13865784281E+03  0.13977840443E+03  0.00000000000E+00 0.  1.
         14    1    5    5    0    0 -0.26882284469E+02  0.32454834614E+02 -0.20806826454E+02  0.46998909936E+02  0.00000000000E+00 0. -1.
          5    1    4    4  501    0 -0.47334826755E+02  0.11369952352E+02 -0.27521780959E+02  0.56119515924E+02  0.47000000000E+01 0. -1.
         -5    1    4    4    0  501 -0.88589831945E+02  0.11666673816E+03 -0.41625918665E+03  0.44130838037E+03  0.47000000000E+01 0. -1.
          1    1    1    2  502    0  0.66643097865E+02  0.12035434130E+02 -0.86048115351E+03  0.86314191748E+03  0.00000000000E+00 0. -1.
          3    1    1    2  503    0 -0.14985317549E+03 -0.13342114714E+03  0.11305252807E+03  0.23029991491E+03  0.00000000000E+00 0. -1.
<mgrwt>
<rscale>  0 0.11539550E+03</rscale>
<asrwt>0</asrwt>
<pdfrwt beam="2">  1        2 0.24945919E+00 0.67721150E+02</pdfrwt>
<pdfrwt beam="1">  1        4 0.53041800E-01 0.19663164E+03</pdfrwt>
<totfact> 0.23980289E+01</totfact>
</mgrwt>
</event>
<event>
13    1  0.2101801E-008  0.1575810E+03  0.7546771E-02  0.1258810E+00
          2   -1    0    0  503    0  0.00000000000E+00  0.00000000000E+00  0.28101715460E+04  0.28101715460E+04  0.00000000000E+00 0. -1.
          2   -1    0    0  502    0 -0.00000000000E+00 -0.00000000000E+00 -0.28959239606E+04  0.28959239606E+04  0.00000000000E+00 0. -1.
         24    2    1    2    0    0 -0.41635674885E+02  0.92309670269E+02 -0.35706032248E+03  0.37960251950E+03  0.79695635225E+02 0.  0.
         25    2    1    2    0    0  0.95461168948E+02  0.16419713346E+02  0.16218649934E+04  0.16295562705E+04  0.12500056087E+03 0.  0.
         24    2    1    2    0    0  0.13513308259E+03  0.60051390901E+01  0.29618520050E+02  0.15998141159E+03  0.80123552215E+02 0.  0.
        -13    1    5    5    0    0  0.26417419751E+02 -0.32498418203E+02  0.82476764782E+01  0.42685494249E+02  0.00000000000E+00 0.  1.
         14    1    5    5    0    0  0.10871566284E+03  0.38503557293E+02  0.21370843572E+02  0.11729591734E+03  0.00000000000E+00 0. -1.
        -13    1    3    3    0    0 -0.46868267859E+02  0.10030209306E+03 -0.26709254709E+03  0.28912899044E+03  0.00000000000E+00 0.  1.
         14    1    3    3    0    0  0.52325929731E+01 -0.79924227920E+01 -0.89967775393E+02  0.90473529059E+02  0.00000000000E+00 0. -1.
          5    1    4    4  501    0  0.50826451615E+01  0.26179938487E+02  0.10615786027E+04  0.10619239343E+04  0.47000000000E+01 0.  1.
         -5    1    4    4    0  501  0.90378523786E+02 -0.97602251411E+01  0.56028639066E+03  0.56763233621E+03  0.47000000000E+01 0.  1.
          1    1    1    2  502    0 -0.15793693886E+03 -0.43031137546E+02 -0.24544205539E+04  0.24598731697E+04  0.00000000000E+00 0. -1.
          1    1    1    2  503    0 -0.31021637791E+02 -0.71703385160E+02  0.10742449483E+04  0.10770821354E+04  0.00000000000E+00 0. -1.
<mgrwt>
<rscale>  0 0.11095592E+03</rscale>
<asrwt>0</asrwt>
<pdfrwt beam="1">  1        2 0.41326052E+00 0.78126292E+02</pdfrwt>
<pdfrwt beam="2">  1        2 0.42587117E+00 0.15758097E+03</pdfrwt>
<totfact> 0.18074409E+00</totfact>
</mgrwt>
</event>
<event>
13    1  0.2101801E-008  0.1056326E+03  0.7546771E-02  0.1303652E+00
          2   -1    0    0  502    0  0.00000000000E+00  0.00000000000E+00  0.29754418217E+04  0.29754418217E+04  0.00000000000E+00 0. -1.
          2   -1    0    0  503    0 -0.00000000000E+00 -0.00000000000E+00 -0.22024623081E+04  0.22024623081E+04  0.00000000000E+00 0. -1.
         24    2    1    2    0    0 -0.82322249956E+02  0.93389743808E+02 -0.25406755595E+03  0.29399856195E+03  0.79913918423E+02 0.  0.
         25    2    1    2    0    0 -0.44573560389E+02 -0.11081289678E+03  0.20327582874E+03  0.26685477269E+03  0.12499642706E+03 0.  0.
         24    2    1    2    0    0  0.17224531979E+02  0.11456666936E+03 -0.80533794585E+02  0.16256954788E+03  0.80752458771E+02 0.  0.
        -11    1    3    3    0    0 -0.16758818564E+02  0.36542964341E+02 -0.21118651491E+02  0.45411933270E+02  0.00000000000E+00 0.  1.
         12    1    3    3    0    0 -0.65563431392E+02  0.56846779466E+02 -0.23294890445E+03  0.24858662868E+03  0.00000000000E+00 0. -1.
        -13    1    5    5    0    0  0.32283231303E+02  0.24969025425E+02 -0.54445475846E+02  0.68043876243E+02  0.00000000000E+00 0.  1.
         14    1    5    5    0    0 -0.15058699324E+02  0.89597643931E+02 -0.26088318739E+02  0.94525671634E+02  0.00000000000E+00 0. -1.
          5    1    4    4  501    0 -0.41701181970E+02 -0.13841431734E+03  0.17354071757E+03  0.22591144831E+03  0.47000000000E+01 0.  1.
         -5    1    4    4    0  501 -0.28723784194E+01  0.27601420560E+02  0.29735111170E+02  0.40943324377E+02  0.47000000000E+01 0.  1.
          1    1    1    2  502    0  0.63220133816E+01 -0.75857225763E+02  0.26772835963E+04  0.26783654982E+04  0.00000000000E+00 0. -1.
          1    1    1    2  503    0  0.10334926499E+03 -0.21286290619E+02 -0.17729785609E+04  0.17761157491E+04  0.00000000000E+00 0. -1.
<mgrwt>
<rscale>  0 0.89670372E+02</rscale>
<asrwt>0</asrwt>
<pdfrwt beam="1">  1        2 0.43756497E+00 0.76120211E+02</pdfrwt>
<pdfrwt beam="2">  1        2 0.32389152E+00 0.10563260E+03</pdfrwt>
<totfact> 0.35223902E+00</totfact>
</mgrwt>
</event>
<event>
13    1  0.2101801E-008  0.7402521E+02  0.7546771E-02  0.1378787E+00
          2   -1    0    0  503    0  0.00000000000E+00  0.00000000000E+00  0.18429759376E+04  0.18429759376E+04  0.00000000000E+00 0. -1.
          2   -1    0    0  502    0 -0.00000000000E+00 -0.00000000000E+00 -0.24125081204E+03  0.24125081204E+03  0.00000000000E+00 0. -1.
         24    2    1    2    0    0  0.26948071339E+02  0.31207181773E+03  0.32425095079E+03  0.45702940178E+03  0.74981177838E+02 0.  0.
         25    2    1    2    0    0  0.19160532284E+03 -0.22246414729E+03  0.27360903815E+03  0.42034135569E+03  0.12498821136E+03 0.  0.
         24    2    1    2    0    0 -0.17286410862E+03 -0.50804453712E+02  0.45847068572E+03  0.49752807340E+03  0.69826367463E+02 0.  0.
        -11    1    3    3    0    0  0.51895450077E+02  0.21152009557E+03  0.23345268720E+03  0.31927111634E+03  0.00000000000E+00 0.  1.
         12    1    3    3    0    0 -0.24947378738E+02  0.10055172216E+03  0.90798263589E+02  0.13775828544E+03  0.00000000000E+00 0. -1.
        -13    1    5    5    0    0 -0.87463840111E+02 -0.56127841161E+02  0.29909275720E+03  0.31663343994E+03  0.00000000000E+00 0.  1.
         14    1    5    5    0    0 -0.85400268509E+02  0.53233874481E+01  0.15937792852E+03  0.18089463346E+03  0.00000000000E+00 0. -1.
          5    1    4    4  501    0  0.80577745913E+02 -0.18468363048E+03  0.16615464505E+03  0.26120925056E+03  0.47000000000E+01 0. -1.
         -5    1    4    4    0  501  0.11102757693E+03 -0.37780516803E+02  0.10745439310E+03  0.15913210513E+03  0.47000000000E+01 0. -1.
          1    1    1    2  502    0 -0.44057291008E+02  0.35684599635E+02 -0.69637948284E+02  0.89799105693E+02  0.00000000000E+00 0. -1.
          1    1    1    2  503    0 -0.16319945498E+01 -0.74487816366E+02  0.61503239921E+03  0.61952881311E+03  0.00000000000E+00 0. -1.
<mgrwt>
<rscale>  0 0.64783740E+02</rscale>
<asrwt>0</asrwt>
<pdfrwt beam="1">  1        2 0.27102587E+00 0.74025214E+02</pdfrwt>
<pdfrwt beam="2">  1        2 0.35478062E-01 0.56695992E+02</pdfrwt>
<totfact> 0.24725643E+02</totfact>
</mgrwt>
</event>
<event>
13    1  0.2101801E-008  0.1626322E+03  0.7546771E-02  0.1255899E+00
          2   -1    0    0  503    0  0.00000000000E+00  0.00000000000E+00  0.63903196552E+03  0.63903196552E+03  0.00000000000E+00 0. -1.
         -1   -1    0    0    0  501 -0.00000000000E+00 -0.00000000000E+00 -0.23205243240E+04  0.23205243240E+04  0.00000000000E+00 0.  1.
         24    2    1    2    0    0 -0.15583704575E+03 -0.93093376392E+02 -0.80328586064E+03  0.82746061030E+03  0.80444553181E+02 0.  0.
         25    2    1    2    0    0  0.96904774747E+01  0.40735704971E+03  0.15668334650E+03  0.45410107038E+03  0.12499775897E+03 0.  0.
         24    2    1    2    0    0  0.30192398052E+02 -0.60526407363E+02 -0.14531642652E+03  0.17898720439E+03  0.79652549430E+02 0.  0.
        -11    1    3    3    0    0 -0.16070172448E+03 -0.98034439180E+02 -0.73121879178E+03  0.75506073727E+03  0.00000000000E+00 0.  1.
         12    1    3    3    0    0  0.48646787246E+01  0.49410627884E+01 -0.72067068860E+02  0.72399873029E+02  0.00000000000E+00 0. -1.
        -13    1    5    5    0    0  0.22742881801E+02 -0.71856814969E+02 -0.71341766511E+02  0.10377999894E+03  0.00000000000E+00 0.  1.
         14    1    5    5    0    0  0.74495162513E+01  0.11330407606E+02 -0.73974660012E+02  0.75207205458E+02  0.00000000000E+00 0. -1.
          5    1    4    4  502    0 -0.28217660051E+01  0.41176899908E+03  0.14816541154E+03  0.43764911761E+03  0.47000000000E+01 0. -1.
         -5    1    4    4    0  502  0.12512243480E+02 -0.44119493679E+01  0.85179349533E+01  0.16451952771E+02  0.47000000000E+01 0. -1.
          1    1    1    2  503    0  0.35211685234E+02 -0.69494690715E+02  0.29108753671E+03  0.30133258842E+03  0.00000000000E+00 0. -1.
         -2    1    1    2    0  501  0.80742484990E+02 -0.18424257524E+03 -0.11806609545E+04  0.11976748160E+04  0.00000000000E+00 0.  1.
<mgrwt>
<rscale>  0 0.11256135E+03</rscale>
<asrwt>0</asrwt>
<pdfrwt beam="1">  1        2 0.93975288E-01 0.77906192E+02</pdfrwt>
<pdfrwt beam="2">  1       -1 0.34125358E+00 0.16263224E+03</pdfrwt>
<totfact> 0.13354794E+00</totfact>
</mgrwt>
</event>
<event>
13    1  0.2101801E-008  0.3236808E+02  0.7546771E-02  0.1649591E+00
          2   -1    0    0  503    0  0.00000000000E+00  0.00000000000E+00  0.17422459206E+04  0.17422459206E+04  0.00000000000E+00 0. -1.
          2   -1    0    0  502    0 -0.00000000000E+00 -0.00000000000E+00 -0.25208015164E+04  0.25208015164E+04  0.00000000000E+00 0. -1.
         24    2    1    2    0    0  0.15480583288E+02 -0.90772236756E+01 -0.18122618896E+04  0.18141784901E+04  0.81414942862E+02 0.  0.
         25    2    1    2    0    0  0.57133952827E+02 -0.62603097885E+02  0.26931896909E+03  0.30879992277E+03  0.12506497815E+03 0.  0.
         24    2    1    2    0    0 -0.75323591919E+02  0.39901381436E+02 -0.31662304500E+03  0.33779220002E+03  0.81164364308E+02 0.  0.
        -13    1    3    3    0    0 -0.31928138116E+02 -0.13200441457E+02 -0.61304360643E+03  0.61401638500E+03  0.00000000000E+00 0.  1.
         14    1    3    3    0    0  0.47408721404E+02  0.41232177813E+01 -0.11992182832E+04  0.12001621051E+04  0.00000000000E+00 0. -1.
        -13    1    5    5    0    0 -0.22136415774E+02  0.41682762075E+02 -0.23940187864E+03  0.24400969869E+03  0.00000000000E+00 0.  1.
         14    1    5    5    0    0 -0.53187176145E+02 -0.17813806393E+01 -0.77221166360E+02  0.93782501338E+02  0.00000000000E+00 0. -1.
          5    1    4    4  501    0  0.62612230506E+02 -0.93430065255E+02  0.24232143975E+03  0.26719138958E+03  0.47000000000E+01 0. -1.
         -5    1    4    4    0  501 -0.54782776782E+01  0.30826967370E+02  0.26997529340E+02  0.41608533187E+02  0.47000000000E+01 0. -1.
          1    1    1    2  502    0 -0.19045931538E+02  0.78112302883E+01 -0.36015758873E+03  0.36074541099E+03  0.00000000000E+00 0. -1.
          1    1    1    2  503    0  0.21754987342E+02  0.23967709836E+02  0.14411679585E+04  0.14415314131E+04  0.00000000000E+00 0. -1.
<mgrwt>
<rscale>  0 0.25813040E+02</rscale>
<asrwt>0</asrwt>
<pdfrwt beam="1">  1        2 0.25621264E+00 0.32368077E+02</pdfrwt>
<pdfrwt beam="2">  1        2 0.37070610E+00 0.20585500E+02</pdfrwt>
<totfact> 0.13594670E+01</totfact>
</mgrwt>
</event>
<event>
13    1  0.2101801E-008  0.1662728E+03  0.7546771E-02  0.1266551E+00
          2   -1    0    0  503    0  0.00000000000E+00  0.00000000000E+00  0.23164503333E+04  0.23164503333E+04  0.00000000000E+00 0. -1.
          2   -1    0    0  502    0 -0.00000000000E+00 -0.00000000000E+00 -0.29815017418E+04  0.29815017418E+04  0.00000000000E+00 0. -1.
         24    2    1    2    0    0  0.27672617882E+02 -0.27808422582E+02 -0.82646913598E+02  0.12102601904E+03  0.79231955744E+02 0.  0.
         25    2    1    2    0    0 -0.18496303871E+03 -0.11407583394E+03 -0.41592400183E+03  0.48563579190E+03  0.12499890198E+03 0.  0.
         24    2    1    2    0    0  0.69830334955E+02 -0.13170017625E+03  0.26423411611E+03  0.31371287307E+03  0.79842886388E+02 0.  0.
        -13    1    3    3    0    0  0.55026781111E+02 -0.24471846484E+02 -0.63196839432E+02  0.87296382651E+02  0.00000000000E+00 0.  1.
         14    1    3    3    0    0 -0.27354163229E+02 -0.33365760982E+01 -0.19450074166E+02  0.33729636391E+02  0.00000000000E+00 0. -1.
        -13    1    5    5    0    0  0.37391404109E+01  0.58745704733E+01 -0.16316215816E+01  0.71521981407E+01  0.00000000000E+00 0.  1.
         14    1    5    5    0    0  0.66091194544E+02 -0.13757474673E+03  0.26586573769E+03  0.30656067493E+03  0.00000000000E+00 0. -1.
          5    1    4    4  501    0 -0.17730947708E+03 -0.54688279235E+02 -0.35188551827E+03  0.39783786461E+03  0.47000000000E+01 0. -1.
         -5    1    4    4    0  501 -0.76535616307E+01 -0.59387554707E+02 -0.64038483560E+02  0.87797927290E+02  0.47000000000E+01 0. -1.
          1    1    1    2  502    0  0.15375967257E+02  0.66897053272E+02 -0.23975831880E+04  0.23985655671E+04  0.00000000000E+00 0. -1.
          1    1    1    2  503    0  0.72084118614E+02  0.20668737951E+03  0.19668685788E+04  0.19790118239E+04  0.00000000000E+00 0. -1.
<mgrwt>
<rscale>  0 0.10683255E+03</rscale>
<asrwt>0</asrwt>
<pdfrwt beam="1">  1        2 0.34065446E+00 0.16627283E+03</pdfrwt>
<pdfrwt beam="2">  1        2 0.43845614E+00 0.68641359E+02</pdfrwt>
<totfact> 0.29675877E+00</totfact>
</mgrwt>
</event>
<event>
13    1  0.2101801E-008  0.1593301E+03  0.7546771E-02  0.1331048E+00
          2   -1    0    0  503    0  0.00000000000E+00  0.00000000000E+00  0.10445099543E+04  0.10445099543E+04  0.00000000000E+00 0. -1.
         -3   -1    0    0    0  501 -0.00000000000E+00 -0.00000000000E+00 -0.15018089359E+04  0.15018089359E+04  0.00000000000E+00 0.  1.
         24    2    1    2    0    0  0.54865624078E+02  0.33230606649E+02 -0.10442157366E+03  0.14064903532E+03  0.69020114231E+02 0.  0.
         25    2    1    2    0    0 -0.12017404413E+03  0.14736212941E+03  0.55511477057E+03  0.59994387388E+03  0.12499138063E+03 0.  0.
         24    2    1    2    0    0 -0.18164289498E+02  0.12193308888E+03  0.11857176098E+03  0.18889565547E+03  0.80154142619E+02 0.  0.
        -11    1    5    5    0    0 -0.17319731219E+02  0.12784564274E+03  0.12533665183E+03  0.17987150343E+03  0.00000000000E+00 0.  1.
         12    1    5    5    0    0 -0.84455827848E+00 -0.59125538606E+01 -0.67648908481E+01  0.90241520392E+01  0.00000000000E+00 0. -1.
        -13    1    3    3    0    0  0.25787038440E+02  0.46461059604E+02 -0.33372931405E+02  0.62748338317E+02  0.00000000000E+00 0.  1.
         14    1    3    3    0    0  0.29078585638E+02 -0.13230452955E+02 -0.71048642252E+02  0.77900697005E+02  0.00000000000E+00 0. -1.
          5    1    4    4  502    0 -0.11400608493E+03  0.76269981674E+02  0.23683366901E+03  0.27372755485E+03  0.47000000000E+01 0.  1.
         -5    1    4    4    0  502 -0.61679591923E+01  0.71092147741E+02  0.31828110156E+03  0.32621631903E+03  0.47000000000E+01 0.  1.
          1    1    1    2  503    0  0.35831268898E+02 -0.16550143911E+02  0.27782316051E+03  0.28061271463E+03  0.00000000000E+00 0. -1.
         -4    1    1    2    0  501  0.47641440647E+02 -0.28597568103E+03 -0.13043871000E+04  0.13362176109E+04  0.00000000000E+00 0.  1.
<mgrwt>
<rscale>  0 0.79300507E+02</rscale>
<asrwt>0</asrwt>
<pdfrwt beam="1">  1        2 0.15360441E+00 0.39468812E+02</pdfrwt>
<pdfrwt beam="2">  1       -3 0.22085425E+00 0.15933012E+03</pdfrwt>
<totfact> 0.21870815E+00</totfact>
</mgrwt>
</event>
<event>
13    1  0.2101801E-008  0.3096518E+03  0.7546771E-02  0.1202157E+00
          2   -1    0    0  502    0  0.00000000000E+00  0.00000000000E+00  0.15280204466E+04  0.15280204466E+04  0.00000000000E+00 0. -1.
          2   -1    0    0  503    0 -0.00000000000E+00 -0.00000000000E+00 -0.12568727547E+04  0.12568727547E+04  0.00000000000E+00 0. -1.
         24    2    1    2    0    0  0.36412403183E+03 -0.88699352095E+01 -0.16215299024E+03  0.40686402184E+03  0.81115681046E+02 0.  0.
         25    2    1    2    0    0 -0.43993209786E+03 -0.19042000239E+03  0.60666464298E+03  0.78324203057E+03  0.12500424547E+03 0.  0.
         24    2    1    2    0    0 -0.15453400352E+03 -0.44797288220E+02 -0.31489375195E+01  0.17990922386E+03  0.80435425963E+02 0.  0.
        -11    1    3    3    0    0  0.16162945467E+03 -0.32023729261E+02 -0.41132041040E+02  0.16982769107E+03  0.00000000000E+00 0.  1.
         12    1    3    3    0    0  0.20249457716E+03  0.23153794052E+02 -0.12102094920E+03  0.23703633077E+03  0.00000000000E+00 0. -1.
        -13    1    5    5    0    0 -0.79223981247E+02 -0.58631643836E+02 -0.22146167012E+02  0.10101763003E+03  0.00000000000E+00 0.  1.
         14    1    5    5    0    0 -0.75310022269E+02  0.13834355617E+02  0.18997229493E+02  0.78891593835E+02  0.00000000000E+00 0. -1.
          5    1    4    4  501    0 -0.78543557979E+02 -0.90751189794E+02  0.13424654855E+03  0.18013632268E+03  0.47000000000E+01 0.  1.
         -5    1    4    4    0  501 -0.36138853988E+03 -0.99668812591E+02  0.47241809443E+03  0.60310570790E+03  0.47000000000E+01 0.  1.
          1    1    1    2  502    0  0.67319862943E+02 -0.23635256324E+02  0.58910223061E+03  0.59340713460E+03  0.00000000000E+00 0. -1.
          1    1    1    2  503    0  0.16302220660E+03  0.26772248214E+03 -0.75931725393E+03  0.82147079035E+03  0.00000000000E+00 0. -1.
<mgrwt>
<rscale>  0 0.14863765E+03</rscale>
<asrwt>0</asrwt>
<pdfrwt beam="1">  1        2 0.22470889E+00 0.71348366E+02</pdfrwt>
<pdfrwt beam="2">  1        2 0.18483423E+00 0.30965180E+03</pdfrwt>
<totfact> 0.49299328E+01</totfact>
</mgrwt>
</event>
<event>
13    1  0.2101801E-008  0.1631531E+03  0.7546771E-02  0.1312930E+00
          2   -1    0    0  503    0  0.00000000000E+00  0.00000000000E+00  0.60653377169E+03  0.60653377169E+03  0.00000000000E+00 0. -1.
          2   -1    0    0  502    0 -0.00000000000E+00 -0.00000000000E+00 -0.16279131803E+04  0.16279131803E+04  0.00000000000E+00 0. -1.
         24    2    1    2    0    0 -0.20801716959E+03  0.16608481170E+03 -0.10408597693E+04  0.10774912850E+04  0.82116395233E+02 0.  0.
         25    2    1    2    0    0 -0.71858088490E+02  0.90897242746E+02  0.12098321839E+03  0.20901491133E+03  0.12499760161E+03 0.  0.
         24    2    1    2    0    0  0.18318163336E+03 -0.89892219053E+02 -0.77805749237E+02  0.23219087821E+03  0.78884393035E+02 0.  0.
        -13    1    5    5    0    0  0.70074885901E+01 -0.14924012654E+02 -0.30968017451E+02  0.35083459848E+02  0.00000000000E+00 0.  1.
         14    1    5    5    0    0  0.17617414477E+03 -0.74968206398E+02 -0.46837731786E+02  0.19710741836E+03  0.00000000000E+00 0. -1.
        -13    1    3    3    0    0 -0.62433213800E+02  0.14223036620E+02 -0.17219004809E+03  0.18371067911E+03  0.00000000000E+00 0.  1.
         14    1    3    3    0    0 -0.14558395579E+03  0.15186177508E+03 -0.86866972120E+03  0.89378060587E+03  0.00000000000E+00 0. -1.
          5    1    4    4  501    0 -0.57599473094E+02  0.51344430701E+02 -0.36561121339E+01  0.77391259330E+02  0.47000000000E+01 0.  1.
         -5    1    4    4    0  501 -0.14258615396E+02  0.39552812045E+02  0.12463933052E+03  0.13162365200E+03  0.47000000000E+01 0.  1.
          1    1    1    2  502    0  0.52152386877E+02 -0.17531309479E+03 -0.34541830896E+03  0.39085593360E+03  0.00000000000E+00 0. -1.
          1    1    1    2  503    0  0.44541237849E+02  0.82232593992E+01  0.32172120053E+03  0.32489394382E+03  0.00000000000E+00 0. -1.
<mgrwt>
<rscale>  0 0.85964237E+02</rscale>
<asrwt>0</asrwt>
<pdfrwt beam="1">  1        2 0.89196145E-01 0.45293972E+02</pdfrwt>
<pdfrwt beam="2">  1        2 0.23939899E+00 0.16315306E+03</pdfrwt>
<totfact> 0.11291491E+02</totfact>
</mgrwt>
</event>
<event>
13    1  0.2101801E-008  0.4050627E+02  0.7546771E-02  0.1553356E+00
          2   -1    0    0  502    0  0.00000000000E+00  0.00000000000E+00  0.65374464842E+03  0.65374464842E+03  0.00000000000E+00 0. -1.
          2   -1    0    0  503    0 -0.00000000000E+00 -0.00000000000E+00 -0.18077556705E+04  0.18077556705E+04  0.00000000000E+00 0. -1.
         24    2    1    2    0    0  0.32912383696E+02  0.31164927171E+02 -0.67664705277E+03  0.68306951904E+03  0.81720598017E+02 0.  0.
         25    2    1    2    0    0 -0.24951400038E+02  0.75765427330E+01 -0.10252428806E+03  0.16375648123E+03  0.12499991656E+03 0.  0.
         24    2    1    2    0    0  0.15667747482E+02 -0.10011778945E+02 -0.41711265430E+03  0.42469107781E+03  0.77677739214E+02 0.  0.
        -11    1    5    5    0    0  0.23387756010E+02 -0.37162261550E+02 -0.33493273000E+03  0.33779868922E+03  0.00000000000E+00 0.  1.
         12    1    5    5    0    0 -0.77200085282E+01  0.27150482606E+02 -0.82179924296E+02  0.86892388589E+02  0.00000000000E+00 0. -1.
        -13    1    3    3    0    0  0.56437065356E+02  0.33607886144E+02 -0.57329893513E+03  0.57704965244E+03  0.00000000000E+00 0.  1.
         14    1    3    3    0    0 -0.23524681660E+02 -0.24429589729E+01 -0.10334811763E+03  0.10601986660E+03  0.00000000000E+00 0. -1.
          5    1    4    4  501    0 -0.26884709250E+02 -0.56487899092E+02 -0.59148069980E+02  0.86222123134E+02  0.47000000000E+01 0. -1.
         -5    1    4    4    0  501  0.19333092121E+01  0.64064441825E+02 -0.43376218075E+02  0.77534358096E+02  0.47000000000E+01 0. -1.
          1    1    1    2  502    0 -0.40255868635E+02 -0.45636097724E+01  0.61508640680E+03  0.61641921557E+03  0.00000000000E+00 0. -1.
          1    1    1    2  503    0  0.16627137495E+02 -0.24166081187E+02 -0.57281343380E+03  0.57356402530E+03  0.00000000000E+00 0. -1.
<mgrwt>
<rscale>  0 0.34470213E+02</rscale>
<asrwt>0</asrwt>
<pdfrwt beam="1">  1        2 0.96138919E-01 0.40506274E+02</pdfrwt>
<pdfrwt beam="2">  1        2 0.26584642E+00 0.29333619E+02</pdfrwt>
<totfact> 0.10058458E+02</totfact>
</mgrwt>
</event>
<event>
13    1  0.2101801E-008  0.3571313E+02  0.7546771E-02  0.1602547E+00
          2   -1    0    0  503    0  0.00000000000E+00  0.00000000000E+00  0.15119008334E+04  0.15119008334E+04  0.00000000000E+00 0. -1.
         -1   -1    0    0    0  501 -0.00000000000E+00 -0.00000000000E+00 -0.85586096480E+03  0.85586096480E+03  0.00000000000E+00 0.  1.
         24    2    1    2    0    0  0.87898035396E+02  0.42052905366E+02 -0.12869098837E+03  0.18074568582E+03  0.81321097979E+02 0.  0.
         25    2    1    2    0    0 -0.12480111309E+03  0.86586323130E+01  0.25676646590E+03  0.31177555794E+03  0.12499876311E+03 0.  0.
         24    2    1    2    0    0  0.24033403971E+02 -0.13959339528E+02 -0.57977857034E+03  0.58700922399E+03  0.87545249824E+02 0.  0.
        -13    1    5    5    0    0  0.11179264573E+02 -0.41850489017E+02 -0.49405869839E+03  0.49595406727E+03  0.00000000000E+00 0.  1.
         14    1    5    5    0    0  0.12854139399E+02  0.27891149489E+02 -0.85719871946E+02  0.91055156723E+02  0.00000000000E+00 0. -1.
        -13    1    3    3    0    0  0.58043834312E+01  0.42550130865E+02 -0.30061735639E+02  0.52420534653E+02  0.00000000000E+00 0.  1.
         14    1    3    3    0    0  0.82093651965E+02 -0.49722549939E+00 -0.98629252735E+02  0.12832515116E+03  0.00000000000E+00 0. -1.
          5    1    4    4  502    0  0.13961789339E+02  0.27455970803E+02  0.21184426711E+02  0.37678001928E+02  0.47000000000E+01 0. -1.
         -5    1    4    4    0  502 -0.13876290243E+03 -0.18797338490E+02  0.23558203919E+03  0.27409755602E+03  0.47000000000E+01 0. -1.
          1    1    1    2  503    0  0.24364510500E+02 -0.28803540295E+01  0.11943118413E+04  0.11945638117E+04  0.00000000000E+00 0. -1.
         -2    1    1    2    0  501 -0.11494836774E+02 -0.33871844122E+02 -0.86568879942E+02  0.93667518762E+02  0.00000000000E+00 0.  1.
<mgrwt>
<rscale>  0 0.29600543E+02</rscale>
<asrwt>0</asrwt>
<pdfrwt beam="1">  1        2 0.22233836E+00 0.24534176E+02</pdfrwt>
<pdfrwt beam="2">  1       -1 0.12586191E+00 0.35713127E+02</pdfrwt>
<totfact> 0.13528880E+01</totfact>
</mgrwt>
</event>
<event>
13    1  0.2101801E-008  0.6423940E+02  0.7546771E-02  0.1438030E+00
          2   -1    0    0  503    0  0.00000000000E+00  0.00000000000E+00  0.55525518793E+04  0.55525518793E+04  0.00000000000E+00 0. -1.
          2   -1    0    0  502    0 -0.00000000000E+00 -0.00000000000E+00 -0.33971100950E+04  0.33971100950E+04  0.00000000000E+00 0. -1.
         24    2    1    2    0    0  0.39197529740E+03 -0.16407208848E+04 -0.34012017429E+03  0.17230273574E+04  0.86786437299E+02 0.  0.
         25    2    1    2    0    0  0.13053386231E+03 -0.31550949875E+02  0.37133120305E+03  0.41418427503E+03  0.12500879842E+03 0.  0.
         24    2    1    2    0    0 -0.57111148357E+03  0.17201278164E+04  0.63558596048E+03  0.19225000876E+04  0.83839384559E+02 0.  0.
        -11    1    5    5    0    0 -0.43724495214E+03  0.13316921556E+04  0.45426464576E+03  0.14734122009E+04  0.00000000000E+00 0.  1.
         12    1    5    5    0    0 -0.13386653143E+03  0.38843566075E+03  0.18132131473E+03  0.44908788667E+03  0.00000000000E+00 0. -1.
        -13    1    3    3    0    0  0.98294273993E+02 -0.31642157304E+03 -0.39918718788E+02  0.33373324721E+03  0.00000000000E+00 0.  1.
         14    1    3    3    0    0  0.29368102340E+03 -0.13242993117E+04 -0.30020145550E+03  0.13892941101E+04  0.00000000000E+00 0. -1.
          5    1    4    4  501    0  0.13002730891E+03  0.19929683324E+02  0.25909485409E+03  0.29061405121E+03  0.47000000000E+01 0.  1.
         -5    1    4    4    0  501  0.50655339956E+00 -0.51480633200E+02  0.11223634895E+03  0.12357022383E+03  0.47000000000E+01 0.  1.
          1    1    1    2  502    0 -0.14922864128E+02 -0.38291819559E+02 -0.17000808789E+04  0.17005775343E+04  0.00000000000E+00 0. -1.
          1    1    1    2  503    0  0.63525187988E+02 -0.95641621428E+01  0.31887256740E+04  0.31893727199E+04  0.00000000000E+00 0. -1.
<mgrwt>
<rscale>  0 0.51381324E+02</rscale>
<asrwt>0</asrwt>
<pdfrwt beam="1">  1        2 0.81655175E+00 0.64239403E+02</pdfrwt>
<pdfrwt beam="2">  1        2 0.49957501E+00 0.41096902E+02</pdfrwt>
<totfact> 0.98793340E-03</totfact>
</mgrwt>
</event>
<event>
13    1  0.2101801E-008  0.1684776E+03  0.7546771E-02  0.1213451E+00
          2   -1    0    0  503    0  0.00000000000E+00  0.00000000000E+00  0.21695786917E+04  0.21695786917E+04  0.00000000000E+00 0. -1.
          2   -1    0    0  502    0 -0.00000000000E+00 -0.00000000000E+00 -0.15951717150E+04  0.15951717150E+04  0.00000000000E+00 0. -1.
         24    2    1    2    0    0 -0.12071682264E+03 -0.50925273430E+02 -0.18090159875E+03  0.23651504578E+03  0.77769169379E+02 0.  0.
         25    2    1    2    0    0 -0.13308310015E+03 -0.89785510298E+02  0.41278427307E+03  0.46020423322E+03  0.12499812310E+03 0.  0.
         24    2    1    2    0    0 -0.18341795190E+02 -0.54701566504E+02 -0.35431569714E+02  0.10419190991E+03  0.79195171128E+02 0.  0.
        -11    1    5    5    0    0 -0.14868729532E+02  0.16901954600E+02  0.32328062945E+01  0.22742168405E+02  0.00000000000E+00 0.  1.
         12    1    5    5    0    0 -0.34730656574E+01 -0.71603521104E+02 -0.38664376008E+02  0.81449741508E+02  0.00000000000E+00 0. -1.
        -13    1    3    3    0    0 -0.99102805462E+02 -0.27947411764E+01 -0.10917294393E+03  0.14747172039E+03  0.00000000000E+00 0.  1.
         14    1    3    3    0    0 -0.21614017183E+02 -0.48130532254E+02 -0.71728654823E+02  0.89043325390E+02  0.00000000000E+00 0. -1.
          5    1    4    4  501    0 -0.15637530846E+03 -0.79743610005E+02  0.33465432625E+03  0.37792577116E+03  0.47000000000E+01 0.  1.
         -5    1    4    4    0  501  0.23292208304E+02 -0.10041900293E+02  0.78129946816E+02  0.82278462058E+02  0.47000000000E+01 0.  1.
          1    1    1    2  502    0  0.31751410326E+03  0.88389011959E+02 -0.12698568062E+04  0.13119314507E+04  0.00000000000E+00 0. -1.
          1    1    1    2  503    0 -0.45372385275E+02  0.10702333827E+03  0.16478126783E+04  0.16519077671E+04  0.00000000000E+00 0. -1.
<mgrwt>
<rscale>  0 0.13990970E+03</rscale>
<asrwt>0</asrwt>
<pdfrwt beam="1">  1        2 0.31905569E+00 0.11618594E+03</pdfrwt>
<pdfrwt beam="2">  1        2 0.23458408E+00 0.16847756E+03</pdfrwt>
<totfact> 0.16026403E+01</totfact>
</mgrwt>
</event>
<event>
13    1  0.2101801E-008  0.1535759E+03  0.7546771E-02  0.1229341E+00
          2   -1    0    0  502    0  0.00000000000E+00  0.00000000000E+00  0.32881470153E+04  0.32881470153E+04  0.00000000000E+00 0. -1.
          2   -1    0    0  503    0 -0.00000000000E+00 -0.00000000000E+00 -0.13808813028E+04  0.13808813028E+04  0.00000000000E+00 0. -1.
         24    2    1    2    0    0  0.48331068207E+01  0.27680185604E+02 -0.78227173327E+02  0.11185765710E+03  0.74853812257E+02 0.  0.
         25    2    1    2    0    0 -0.21181254699E+03 -0.17344500278E+03  0.15881697172E+04  0.16164331515E+04  0.12500143420E+03 0.  0.
         24    2    1    2    0    0 -0.42346989084E+02 -0.54681199988E+01 -0.43016714687E+02  0.10082379220E+03  0.80571902736E+02 0.  0.
        -11    1    3    3    0    0 -0.18573472183E+02 -0.15097357455E+02 -0.50200285992E+02  0.55614501568E+02  0.00000000000E+00 0.  1.
         12    1    3    3    0    0  0.23406579004E+02  0.42777543060E+02 -0.28026887336E+02  0.56243155536E+02  0.00000000000E+00 0. -1.
        -13    1    5    5    0    0  0.19066101142E+02  0.17219813394E+02 -0.13200875679E+02  0.28884274350E+02  0.00000000000E+00 0.  1.
         14    1    5    5    0    0 -0.61413090226E+02 -0.22687933393E+02 -0.29815839008E+02  0.71939517850E+02  0.00000000000E+00 0. -1.
          5    1    4    4  501    0 -0.97290540918E+02 -0.71699810372E+02  0.38525759106E+03  0.40379674792E+03  0.47000000000E+01 0.  1.
         -5    1    4    4    0  501 -0.11452200607E+03 -0.10174519241E+03  0.12029121262E+04  0.12126364036E+04  0.47000000000E+01 0.  1.
          1    1    1    2  502    0  0.26633415036E+03  0.31704482540E+02  0.16260754569E+04  0.16480474645E+04  0.00000000000E+00 0. -1.
          1    1    1    2  503    0 -0.17007721106E+02  0.11952845464E+03 -0.11857355736E+04  0.11918662528E+04  0.00000000000E+00 0. -1.
<mgrwt>
<rscale>  0 0.12873773E+03</rscale>
<asrwt>0</asrwt>
<pdfrwt beam="1">  1        2 0.48355103E+00 0.15357587E+03</pdfrwt>
<pdfrwt beam="2">  1        2 0.20307078E+00 0.10791671E+03</pdfrwt>
<totfact> 0.53378402E+00</totfact>
</mgrwt>
</event>
<event>
13    1  0.2101801E-008  0.1127009E+03  0.7546771E-02  0.1261660E+00
          2   -1    0    0  502    0  0.00000000000E+00  0.00000000000E+00  0.19767628290E+04  0.19767628290E+04  0.00000000000E+00 0. -1.
          2   -1    0    0  503    0 -0.00000000000E+00 -0.00000000000E+00 -0.48563215821E+03  0.48563215821E+03  0.00000000000E+00 0. -1.
         24    2    1    2    0    0  0.22493070702E+01 -0.11488167209E+03  0.32648783759E+03  0.35474981825E+03  0.77783465402E+02 0.  0.
         25    2    1    2    0    0 -0.21923485026E+03 -0.25059156921E+02  0.26409703094E+03  0.36614885990E+03  0.12500345970E+03 0.  0.
         24    2    1    2    0    0  0.66346504482E+01  0.88213425709E+02  0.37724974583E+03  0.39538521663E+03  0.78654127308E+02 0.  0.
        -13    1    5    5    0    0 -0.10181066231E+02  0.81904416134E+02  0.36353748215E+03  0.37278879868E+03  0.00000000000E+00 0.  1.
         14    1    5    5    0    0  0.16815716679E+02  0.63090095750E+01  0.13712263680E+02  0.22596417957E+02  0.00000000000E+00 0. -1.
        -13    1    3    3    0    0 -0.28755121937E+02 -0.50264432788E+02  0.85001895366E+02  0.10285277078E+03  0.00000000000E+00 0.  1.
         14    1    3    3    0    0  0.31004429007E+02 -0.64617239306E+02  0.24148594222E+03  0.25189704747E+03  0.00000000000E+00 0. -1.
          5    1    4    4  501    0 -0.23050220960E+03 -0.22119725926E+02  0.26679832311E+03  0.35330438169E+03  0.47000000000E+01 0.  1.
         -5    1    4    4    0  501  0.11267359342E+02 -0.29394309953E+01 -0.27012921667E+01  0.12844478210E+02  0.47000000000E+01 0.  1.
          1    1    1    2  502    0  0.99277187033E+02  0.37776481036E+02  0.92398873079E+03  0.93007429650E+03  0.00000000000E+00 0. -1.
          1    1    1    2  503    0  0.11107370571E+03  0.13950922270E+02 -0.40069267433E+03  0.41603679596E+03  0.00000000000E+00 0. -1.
<mgrwt>
<rscale>  0 0.10941327E+03</rscale>
<asrwt>0</asrwt>
<pdfrwt beam="1">  1        2 0.29070041E+00 0.10622157E+03</pdfrwt>
<pdfrwt beam="2">  1        2 0.71416495E-01 0.11270088E+03</pdfrwt>
<totfact> 0.99312350E+01</totfact>
</mgrwt>
</event>
<event>
13    1  0.2101801E-008  0.2960864E+03  0.7546771E-02  0.1129882E+00
          2   -1    0    0  502    0  0.00000000000E+00  0.00000000000E+00  0.34091294412E+04  0.34091294412E+04  0.00000000000E+00 0. -1.
          2   -1    0    0  503    0 -0.00000000000E+00 -0.00000000000E+00 -0.11222144793E+04  0.11222144793E+04  0.00000000000E+00 0. -1.
         24    2    1    2    0    0  0.37142725151E+03  0.16399789157E+03 -0.28120536301E+03  0.50037491465E+03  0.80281301855E+02 0.  0.
         25    2    1    2    0    0 -0.68023446589E+03 -0.96838541984E+02  0.96281425648E+03  0.11894260273E+04  0.12500540087E+03 0.  0.
         24    2    1    2    0    0 -0.17801164322E+03 -0.22781098279E+02 -0.11611632071E+03  0.22938700200E+03  0.83236249277E+02 0.  0.
        -13    1    3    3    0    0  0.36655344561E+03  0.17128705179E+03 -0.27854865830E+03  0.49121282316E+03  0.00000000000E+00 0.  1.
         14    1    3    3    0    0  0.48738058945E+01 -0.72891602172E+01 -0.26567047156E+01  0.91620914924E+01  0.00000000000E+00 0. -1.
        -13    1    5    5    0    0 -0.42399387790E+02 -0.82476328076E+01 -0.75665025410E+02  0.87125929563E+02  0.00000000000E+00 0.  1.
         14    1    5    5    0    0 -0.13561225543E+03 -0.14533465472E+02 -0.40451295297E+02  0.14226107244E+03  0.00000000000E+00 0. -1.
          5    1    4    4  501    0 -0.16658892472E+02 -0.15652408291E+02  0.98181199810E+01  0.25318018557E+02  0.47000000000E+01 0. -1.
         -5    1    4    4    0  501 -0.66357557341E+03 -0.81186133693E+02  0.95299613650E+03  0.11641080088E+04  0.47000000000E+01 0. -1.
          1    1    1    2  502    0  0.27080810844E+03 -0.11901478080E+03  0.21265425891E+04  0.21470176834E+04  0.00000000000E+00 0. -1.
          1    1    1    2  503    0  0.21601074916E+03  0.74636529490E+02 -0.40512019997E+03  0.46513829310E+03  0.00000000000E+00 0. -1.
<mgrwt>
<rscale>  0 0.22545314E+03</rscale>
<asrwt>0</asrwt>
<pdfrwt beam="1">  1        2 0.50134256E+00 0.29608640E+03</pdfrwt>
<pdfrwt beam="2">  1        2 0.16503154E+00 0.17166988E+03</pdfrwt>
<totfact> 0.54549651E+00</totfact>
</mgrwt>
</event>
<event>
13    1  0.2101801E-008  0.7969863E+02  0.7546771E-02  0.1364806E+00
          2   -1    0    0  503    0  0.00000000000E+00  0.00000000000E+00  0.10836755343E+04  0.10836755343E+04  0.00000000000E+00 0. -1.
          2   -1    0    0  502    0 -0.00000000000E+00 -0.00000000000E+00 -0.40028784240E+03  0.40028784240E+03  0.00000000000E+00 0. -1.
         24    2    1    2    0    0 -0.12795508252E+03 -0.11222122806E+03 -0.98958614027E+02  0.21311375489E+03  0.81599988118E+02 0.  0.
         25    2    1    2    0    0  0.12986896597E+03  0.71285512722E+02  0.61873158705E+03  0.64838295408E+03  0.12499642269E+03 0.  0.
         24    2    1    2    0    0 -0.79625387856E+02 -0.21761350636E+02  0.87591582781E+02  0.14472010927E+03  0.80360847923E+02 0.  0.
        -11    1    5    5    0    0 -0.53798259465E+02  0.26871785812E+02  0.45444313210E+02  0.75375932481E+02  0.00000000000E+00 0.  1.
         12    1    5    5    0    0 -0.25827128391E+02 -0.48633136447E+02  0.42147269571E+02  0.69344176784E+02  0.00000000000E+00 0. -1.
        -13    1    3    3    0    0 -0.16014282213E+02  0.94936135374E+00  0.11172341825E+02  0.19549417987E+02  0.00000000000E+00 0.  1.
         14    1    3    3    0    0 -0.11194080031E+03 -0.11317058941E+03 -0.11013095585E+03  0.19356433690E+03  0.00000000000E+00 0. -1.
          5    1    4    4  501    0  0.63538324603E+02 -0.11267434664E+02  0.10126010530E+03  0.12016560533E+03  0.47000000000E+01 0.  1.
         -5    1    4    4    0  501  0.66330641364E+02  0.82552947386E+02  0.51747148175E+03  0.52821734876E+03  0.47000000000E+01 0.  1.
          1    1    1    2  502    0  0.79606194974E+02  0.36245913180E+01 -0.18957977681E+03  0.20564721179E+03  0.00000000000E+00 0. -1.
          1    1    1    2  503    0 -0.18946905630E+01  0.59072474656E+02  0.26560291293E+03  0.27209934669E+03  0.00000000000E+00 0. -1.
<mgrwt>
<rscale>  0 0.68632472E+02</rscale>
<asrwt>0</asrwt>
<pdfrwt beam="1">  1        2 0.15936405E+00 0.59102852E+02</pdfrwt>
<pdfrwt beam="2">  1        2 0.58865859E-01 0.79698629E+02</pdfrwt>
<totfact> 0.35433693E+02</totfact>
</mgrwt>
</event>
<event>
13    1  0.2101801E-008  0.1110633E+03  0.7546771E-02  0.1268756E+00
          2   -1    0    0  502    0  0.00000000000E+00  0.00000000000E+00  0.15054941862E+04  0.15054941862E+04  0.00000000000E+00 0. -1.
          2   -1    0    0  503    0 -0.00000000000E+00 -0.00000000000E+00 -0.15589070367E+04  0.15589070367E+04  0.00000000000E+00 0. -1.
         24    2    1    2    0    0 -0.22452728522E+02  0.41619761601E+02 -0.59404346144E+03  0.60131884079E+03  0.80376517945E+02 0.  0.
         25    2    1    2    0    0 -0.59841636972E+02 -0.29105575656E+01  0.35163655986E+03  0.37797137981E+03  0.12499840345E+03 0.  0.
         24    2    1    2    0    0 -0.13552216644E+03  0.95348231216E+01  0.17480401507E+03  0.23568293895E+03  0.80825946198E+02 0.  0.
        -11    1    3    3    0    0 -0.82568526959E+01 -0.24366816643E+02 -0.15698027029E+03  0.15907458198E+03  0.00000000000E+00 0.  1.
         12    1    3    3    0    0 -0.14195875826E+02  0.65986578244E+02 -0.43706319115E+03  0.44224425881E+03  0.00000000000E+00 0. -1.
        -11    1    5    5    0    0 -0.25834110741E+02 -0.25603392194E+02  0.16570765865E+02  0.39969053667E+02  0.00000000000E+00 0.  1.
         12    1    5    5    0    0 -0.10968805570E+03  0.35138215316E+02  0.15823324921E+03  0.19571388529E+03  0.00000000000E+00 0. -1.
          5    1    4    4  501    0 -0.66532242379E+02 -0.31227186493E+02  0.33720652705E+03  0.34515504971E+03  0.47000000000E+01 0. -1.
         -5    1    4    4    0  501  0.66906054071E+01  0.28316628927E+02  0.14430032807E+02  0.32816330101E+02  0.47000000000E+01 0. -1.
          1    1    1    2  502    0  0.81940227579E+02  0.58310738765E+02  0.92092389946E+03  0.92639903484E+03  0.00000000000E+00 0. -1.
          1    1    1    2  503    0  0.13587630436E+03 -0.10655476592E+03 -0.90673386350E+03  0.92302902849E+03  0.00000000000E+00 0. -1.
<mgrwt>
<rscale>  0 0.10569531E+03</rscale>
<asrwt>0</asrwt>
<pdfrwt beam="1">  1        2 0.22139620E+00 0.10058681E+03</pdfrwt>
<pdfrwt beam="2">  1        2 0.22925104E+00 0.11106325E+03</pdfrwt>
<totfact> 0.36802284E+01</totfact>
</mgrwt>
</event>
<event>
13    1  0.2101801E-008  0.1561414E+03  0.7546771E-02  0.1397470E+00
          2   -1    0    0  503    0  0.00000000000E+00  0.00000000000E+00  0.53027011847E+03  0.53027011847E+03  0.00000000000E+00 0. -1.
         -3   -1    0    0    0  501 -0.00000000000E+00 -0.00000000000E+00 -0.28017542388E+04  0.28017542388E+04  0.00000000000E+00 0.  1.
         24    2    1    2    0    0 -0.36094171522E+02  0.90424167163E+02 -0.88082726389E+03  0.88976931601E+03  0.79708516997E+02 0.  0.
         25    2    1    2    0    0 -0.11000068031E+03 -0.12998336874E+03  0.45025061235E+02  0.21598288882E+03  0.12500210520E+03 0.  0.
         24    2    1    2    0    0  0.43839588387E+02 -0.64548680607E+02 -0.67882139883E+02  0.13041465680E+03  0.79445302656E+02 0.  0.
        -11    1    5    5    0    0  0.28322009216E+02  0.11698746814E+02 -0.33335905468E+02  0.45280011887E+02  0.00000000000E+00 0.  1.
         12    1    5    5    0    0  0.15517579171E+02 -0.76247427421E+02 -0.34546234414E+02  0.85134644909E+02  0.00000000000E+00 0. -1.
        -13    1    3    3    0    0 -0.57471353941E+02  0.41753197312E+02 -0.43147437813E+03  0.43728300332E+03  0.00000000000E+00 0.  1.
         14    1    3    3    0    0  0.21377182418E+02  0.48670969851E+02 -0.44935288575E+03  0.45248631269E+03  0.00000000000E+00 0. -1.
          5    1    4    4  502    0 -0.10363070398E+03 -0.43484223829E+02 -0.10373519405E+02  0.11295972926E+03  0.47000000000E+01 0.  1.
         -5    1    4    4    0  502 -0.63699763300E+01 -0.86499144912E+02  0.55398580640E+02  0.10302315956E+03  0.47000000000E+01 0.  1.
          1    1    1    2  503    0  0.21032795189E+02 -0.96056312514E+01  0.36083925279E+03  0.36157933152E+03  0.00000000000E+00 0. -1.
         -4    1    1    2    0  501  0.81222468257E+02  0.11371351344E+03 -0.17286390306E+04  0.17342781641E+04  0.00000000000E+00 0.  1.
<mgrwt>
<rscale>  0 0.60086331E+02</rscale>
<asrwt>0</asrwt>
<pdfrwt beam="1">  1        2 0.77980899E-01 0.23122427E+02</pdfrwt>
<pdfrwt beam="2">  1       -3 0.41202269E+00 0.15614136E+03</pdfrwt>
<totfact> 0.45766135E-01</totfact>
</mgrwt>
</event>
<event>
13    1  0.2101801E-008  0.6671540E+02  0.7546771E-02  0.1458411E+00
          2   -1    0    0  502    0  0.00000000000E+00  0.00000000000E+00  0.76104199006E+03  0.76104199006E+03  0.00000000000E+00 0. -1.
          2   -1    0    0  503    0 -0.00000000000E+00 -0.00000000000E+00 -0.14435266666E+04  0.14435266666E+04  0.00000000000E+00 0. -1.
         24    2    1    2    0    0 -0.24589285620E+03  0.75294703908E+01 -0.21735542768E+03  0.33853480071E+03  0.82719040676E+02 0.  0.
         25    2    1    2    0    0  0.26841752453E+03  0.21870159216E+02  0.68969661923E+02  0.30481076120E+03  0.12500605800E+03 0.  0.
         24    2    1    2    0    0  0.25509846124E+02  0.23929873845E+02  0.13111127585E+03  0.15757924733E+03  0.80110307831E+02 0.  0.
        -13    1    3    3    0    0 -0.21465048790E+03  0.72550679850E+01 -0.14338782105E+03  0.25823929831E+03  0.00000000000E+00 0.  1.
         14    1    3    3    0    0 -0.31242368306E+02  0.27440240580E+00 -0.73967606636E+02  0.80295502399E+02  0.00000000000E+00 0. -1.
        -13    1    5    5    0    0 -0.13494932093E+01  0.23283892223E+02 -0.42528366027E+00  0.23326843661E+02  0.00000000000E+00 0.  1.
         14    1    5    5    0    0  0.26859339334E+02  0.64598162249E+00  0.13153655951E+03  0.13425240367E+03  0.00000000000E+00 0. -1.
          5    1    4    4  501    0  0.10171326183E+02  0.18773413170E+02  0.39079780906E+02  0.44779640397E+02  0.47000000000E+01 0.  1.
         -5    1    4    4    0  501  0.25824619835E+03  0.30967460461E+01  0.29889881017E+02  0.26003112080E+03  0.47000000000E+01 0.  1.
          1    1    1    2  502    0 -0.32056615151E+02  0.11453998853E+02  0.36735306309E+03  0.36892694890E+03  0.00000000000E+00 0. -1.
          1    1    1    2  503    0 -0.15977899302E+02 -0.64783502306E+02 -0.10325632497E+04  0.10347168985E+04  0.00000000000E+00 0. -1.
<mgrwt>
<rscale>  0 0.47655946E+02</rscale>
<asrwt>0</asrwt>
<pdfrwt beam="1">  1        2 0.11191794E+00 0.34041455E+02</pdfrwt>
<pdfrwt beam="2">  1        2 0.21228333E+00 0.66715398E+02</pdfrwt>
<totfact> 0.11733646E+02</totfact>
</mgrwt>
</event>
<event>
13    1  0.2101801E-008  0.1081295E+03  0.7546771E-02  0.1294050E+00
          2   -1    0    0  503    0  0.00000000000E+00  0.00000000000E+00  0.47859071940E+04  0.47859071940E+04  0.00000000000E+00 0. -1.
          2   -1    0    0  502    0 -0.00000000000E+00 -0.00000000000E+00 -0.43575101309E+03  0.43575101309E+03  0.00000000000E+00 0. -1.
         24    2    1    2    0    0 -0.45334146678E+01  0.50041648359E+02 -0.10442600006E+03  0.15623572301E+03  0.10478594008E+03 0.  0.
         25    2    1    2    0    0 -0.76869086883E+02 -0.51499726718E+02  0.22806826153E+03  0.27604364424E+03  0.12499553289E+03 0.  0.
         24    2    1    2    0    0  0.21122383147E+03  0.13653426314E+03  0.19014359922E+03  0.32536891238E+03  0.80331991341E+02 0.  0.
        -11    1    5    5    0    0 -0.38586653253E+01  0.69978030470E+01 -0.30632392569E+01  0.85581528569E+01  0.00000000000E+00 0.  1.
         12    1    5    5    0    0  0.21508249679E+03  0.12953646009E+03  0.19320683847E+03  0.31681075953E+03  0.00000000000E+00 0. -1.
        -13    1    3    3    0    0 -0.48637624396E+02  0.45230123352E+02 -0.84821342330E+02  0.10773134493E+03  0.00000000000E+00 0.  1.
         14    1    3    3    0    0  0.44104209728E+02  0.48115250064E+01 -0.19604657727E+02  0.48504378083E+02  0.00000000000E+00 0. -1.
          5    1    4    4  501    0  0.15883704585E+02  0.27579565770E+02  0.33861991243E+02  0.46708125314E+02  0.47000000000E+01 0. -1.
         -5    1    4    4    0  501 -0.92752791468E+02 -0.79079292488E+02  0.19420627028E+03  0.22933551893E+03  0.47000000000E+01 0. -1.
          1    1    1    2  502    0 -0.75600748820E+02 -0.74554518910E+02 -0.20022466845E+03  0.22663575924E+03  0.00000000000E+00 0. -1.
          1    1    1    2  503    0 -0.54220581096E+02 -0.60521665868E+02  0.42365949886E+04  0.42373741682E+04  0.00000000000E+00 0. -1.
<mgrwt>
<rscale>  0 0.93735324E+02</rscale>
<asrwt>0</asrwt>
<pdfrwt beam="1">  1        2 0.70380985E+00 0.81257267E+02</pdfrwt>
<pdfrwt beam="2">  1        2 0.64081034E-01 0.10812954E+03</pdfrwt>
<totfact> 0.23209909E+00</totfact>
</mgrwt>
</event>
<event>
13    1  0.2101801E-008  0.1541322E+03  0.7546771E-02  0.1266951E+00
          2   -1    0    0  503    0  0.00000000000E+00  0.00000000000E+00  0.51806375514E+03  0.51806375514E+03  0.00000000000E+00 0. -1.
          2   -1    0    0  502    0 -0.00000000000E+00 -0.00000000000E+00 -0.11486514260E+04  0.11486514260E+04  0.00000000000E+00 0. -1.
         24    2    1    2    0    0  0.10718251267E+03 -0.20461922205E+01 -0.19827557345E+03  0.23593164204E+03  0.69701210609E+02 0.  0.
         25    2    1    2    0    0  0.71886787352E+02 -0.75122259570E+02 -0.41561306236E+03  0.44628434950E+03  0.12499775568E+03 0.  0.
         24    2    1    2    0    0 -0.55762591952E+02 -0.10404258795E+03  0.10095393278E+03  0.17437049066E+03  0.79240423398E+02 0.  0.
        -11    1    5    5    0    0 -0.21070393882E+02  0.91521308480E+01  0.99038549444E+01  0.25016181566E+02  0.00000000000E+00 0.  1.
         12    1    5    5    0    0 -0.34692198070E+02 -0.11319471880E+03  0.91050077831E+02  0.14935430909E+03  0.00000000000E+00 0. -1.
        -13    1    3    3    0    0 -0.89774084785E+01  0.56126407469E+01 -0.25358434955E+02  0.27479916712E+02  0.00000000000E+00 0.  1.
         14    1    3    3    0    0  0.11615992115E+03 -0.76588329674E+01 -0.17291713850E+03  0.20845172532E+03  0.00000000000E+00 0. -1.
          5    1    4    4  501    0  0.54371357274E+02  0.23142650459E+02 -0.20081159108E+03  0.20937815520E+03  0.47000000000E+01 0.  1.
         -5    1    4    4    0  501  0.17515430079E+02 -0.98264910029E+02 -0.21480147127E+03  0.23690619429E+03  0.47000000000E+01 0.  1.
          1    1    1    2  502    0  0.16443025708E+02  0.71904305472E+02 -0.43787343693E+03  0.44404250811E+03  0.00000000000E+00 0. -1.
          1    1    1    2  503    0 -0.13974973378E+03  0.10930673427E+03  0.32022046914E+03  0.36608619081E+03  0.00000000000E+00 0. -1.
<mgrwt>
<rscale>  0 0.10662485E+03</rscale>
<asrwt>0</asrwt>
<pdfrwt beam="1">  1        2 0.76185848E-01 0.15413219E+03</pdfrwt>
<pdfrwt beam="2">  1        2 0.16891932E+00 0.73760438E+02</pdfrwt>
<totfact> 0.24370006E+02</totfact>
</mgrwt>
</event>
<event>
13    1  0.2101801E-008  0.1169546E+03  0.7546771E-02  0.1254893E+00
          2   -1    0    0  503    0  0.00000000000E+00  0.00000000000E+00  0.10678435483E+04  0.10678435483E+04  0.00000000000E+00 0. -1.
          2   -1    0    0  502    0 -0.00000000000E+00 -0.00000000000E+00 -0.19405513486E+04  0.19405513486E+04  0.00000000000E+00 0. -1.
         24    2    1    2    0    0  0.16759015779E+02  0.95773178869E+02 -0.77599747001E+02  0.14816602556E+03  0.80486545434E+02 0.  0.
         25    2    1    2    0    0  0.10011521920E+03  0.70458846608E+02  0.46435593192E+03  0.49622219515E+03  0.12499011667E+03 0.  0.
         24    2    1    2    0    0 -0.41920811016E+02  0.44475756173E+02  0.46871496095E+02  0.11032487370E+03  0.78988564542E+02 0.  0.
        -11    1    3    3    0    0 -0.52593323825E+01  0.65484774977E+02 -0.42768146023E+01  0.65834698101E+02  0.00000000000E+00 0.  1.
         12    1    3    3    0    0  0.22018348162E+02  0.30288403892E+02 -0.73322932399E+02  0.82331327462E+02  0.00000000000E+00 0. -1.
        -13    1    5    5    0    0 -0.72792980876E+01  0.55177108187E+02  0.64539275470E+01  0.56028159253E+02  0.00000000000E+00 0.  1.
         14    1    5    5    0    0 -0.34641512929E+02 -0.10701352014E+02  0.40417568548E+02  0.54296714451E+02  0.00000000000E+00 0. -1.
          5    1    4    4  501    0  0.70136386723E+02  0.30751134308E+02  0.88798223572E+02  0.11735399232E+03  0.47000000000E+01 0.  1.
         -5    1    4    4    0  501  0.29978832482E+02  0.39707712299E+02  0.37555770835E+03  0.37886820283E+03  0.47000000000E+01 0.  1.
          1    1    1    2  502    0  0.30646354398E+02 -0.10513572004E+03 -0.17665027357E+04  0.17698939612E+04  0.00000000000E+00 0. -1.
          1    1    1    2  503    0 -0.10559977837E+03 -0.10557206161E+03  0.46016725436E+03  0.48378784128E+03  0.00000000000E+00 0. -1.
<mgrwt>
<rscale>  0 0.11312354E+03</rscale>
<asrwt>0</asrwt>
<pdfrwt beam="1">  1        2 0.15703582E+00 0.11695458E+03</pdfrwt>
<pdfrwt beam="2">  1        2 0.28537520E+00 0.10941799E+03</pdfrwt>
<totfact> 0.40269762E+01</totfact>
</mgrwt>
</event>
<event>
13    1  0.2101801E-008  0.1163466E+03  0.7546771E-02  0.1387660E+00
          2   -1    0    0  502    0  0.00000000000E+00  0.00000000000E+00  0.15176615331E+04  0.15176615331E+04  0.00000000000E+00 0. -1.
          2   -1    0    0  503    0 -0.00000000000E+00 -0.00000000000E+00 -0.80114439411E+03  0.80114439411E+03  0.00000000000E+00 0. -1.
         24    2    1    2    0    0 -0.40750795755E+01  0.57701474809E+02 -0.44494630421E+03  0.45569883819E+03  0.79612505452E+02 0.  0.
         25    2    1    2    0    0  0.78491823097E+02 -0.14367882006E+03  0.18935027721E+03  0.27979175842E+03  0.12500132388E+03 0.  0.
         24    2    1    2    0    0  0.37061459669E+02 -0.90408174696E+01 -0.10955222600E+03  0.14057173952E+03  0.79394178366E+02 0.  0.
        -11    1    3    3    0    0  0.34781324783E+02  0.20951175721E+02 -0.26084252070E+03  0.26398392550E+03  0.00000000000E+00 0.  1.
         12    1    3    3    0    0 -0.38856404359E+02  0.36750299089E+02 -0.18410378351E+03  0.19171491269E+03  0.00000000000E+00 0. -1.
        -13    1    5    5    0    0  0.56457801772E+02  0.10429325607E+00 -0.43932934596E+02  0.71537381838E+02  0.00000000000E+00 0.  1.
         14    1    5    5    0    0 -0.19396342102E+02 -0.91451107256E+01 -0.65619291401E+02  0.69034357686E+02  0.00000000000E+00 0. -1.
          5    1    4    4  501    0 -0.25507439541E+02 -0.81288447745E+01  0.58611369408E+02  0.64607199391E+02  0.47000000000E+01 0.  1.
         -5    1    4    4    0  501  0.10399926264E+03 -0.13554997529E+03  0.13073890780E+03  0.21518455902E+03  0.47000000000E+01 0.  1.
          1    1    1    2  502    0 -0.81681005822E+02  0.79564297986E+02  0.12580431621E+04  0.12632002462E+04  0.00000000000E+00 0. -1.
          1    1    1    2  503    0 -0.29797197369E+02  0.15453864735E+02 -0.17637777012E+03  0.17954334490E+03  0.00000000000E+00 0. -1.
<mgrwt>
<rscale>  0 0.62492569E+02</rscale>
<asrwt>0</asrwt>
<pdfrwt beam="1">  1        2 0.22318552E+00 0.11634657E+03</pdfrwt>
<pdfrwt beam="2">  1        2 0.11781535E+00 0.33566276E+02</pdfrwt>
<totfact> 0.97543184E+01</totfact>
</mgrwt>
</event>
<event>
13    1  0.2101801E-008  0.1156990E+03  0.7546771E-02  0.1285162E+00
          2   -1    0    0  503    0  0.00000000000E+00  0.00000000000E+00  0.14497064470E+04  0.14497064470E+04  0.00000000000E+00 0. -1.
          2   -1    0    0  502    0 -0.00000000000E+00 -0.00000000000E+00 -0.14317860315E+04  0.14317860315E+04  0.00000000000E+00 0. -1.
         24    2    1    2    0    0  0.39408371986E+02 -0.90878386993E+02 -0.23965277109E+03  0.27573832377E+03  0.93735113496E+02 0.  0.
         25    2    1    2    0    0  0.10995854086E+03  0.85536056380E+02  0.91007546302E+03  0.92912252685E+03  0.12499609542E+03 0.  0.
         24    2    1    2    0    0  0.60550135746E+02  0.21659364690E+02  0.24454956991E+03  0.26534493681E+03  0.80423854231E+02 0.  0.
        -11    1    5    5    0    0 -0.16193186435E+02 -0.68457570394E+01  0.21663748328E+02  0.27899850680E+02  0.00000000000E+00 0.  1.
         12    1    5    5    0    0  0.76743322181E+02  0.28505121730E+02  0.22288582159E+03  0.23744508613E+03  0.00000000000E+00 0. -1.
        -11    1    3    3    0    0  0.75658621955E+01 -0.80698459791E+02 -0.22515563417E+03  0.23930011132E+03  0.00000000000E+00 0.  1.
         12    1    3    3    0    0  0.31842509790E+02 -0.10179927202E+02 -0.14497136924E+02  0.36438212450E+02  0.00000000000E+00 0. -1.
          5    1    4    4  501    0  0.62153121869E+02  0.42527101799E+02  0.16700830307E+03  0.18326327576E+03  0.47000000000E+01 0. -1.
         -5    1    4    4    0  501  0.47805418987E+02  0.43008954581E+02  0.74306715994E+03  0.74585925110E+03  0.47000000000E+01 0. -1.
          1    1    1    2  502    0 -0.71854139150E+02 -0.40611782750E+02 -0.11334489039E+04  0.11364500658E+04  0.00000000000E+00 0. -1.
          1    1    1    2  503    0 -0.13806290944E+03  0.24294748673E+02  0.23639705752E+03  0.27483662525E+03  0.00000000000E+00 0. -1.
<mgrwt>
<rscale>  0 0.97721218E+02</rscale>
<asrwt>0</asrwt>
<pdfrwt beam="1">  1        2 0.21319212E+00 0.11569904E+03</pdfrwt>
<pdfrwt beam="2">  1        2 0.21055677E+00 0.82536866E+02</pdfrwt>
<totfact> 0.45916117E+01</totfact>
</mgrwt>
</event>
<event>
13    1  0.2101801E-008  0.6008044E+02  0.7546771E-02  0.1409871E+00
          2   -1    0    0  503    0  0.00000000000E+00  0.00000000000E+00  0.91611896085E+03  0.91611896085E+03  0.00000000000E+00 0. -1.
         -1   -1    0    0    0  501 -0.00000000000E+00 -0.00000000000E+00 -0.93548069025E+03  0.93548069025E+03  0.00000000000E+00 0.  1.
         24    2    1    2    0    0  0.47879945694E+02 -0.14475205443E+02 -0.42161921699E+03  0.43180381006E+03  0.78674935481E+02 0.  0.
         25    2    1    2    0    0 -0.68893364016E+02  0.53769843470E+01 -0.50771788458E+02  0.15158657398E+03  0.12500202935E+03 0.  0.
         24    2    1    2    0    0  0.43783049676E+02  0.11610107942E+02 -0.93679735164E+02  0.13004633652E+03  0.78002607747E+02 0.  0.
        -11    1    3    3    0    0  0.65600593156E+02  0.57289647589E+01 -0.27807719144E+03  0.28576770857E+03  0.00000000000E+00 0.  1.
         12    1    3    3    0    0 -0.17720647463E+02 -0.20204170202E+02 -0.14354202555E+03  0.14603610150E+03  0.00000000000E+00 0. -1.
        -11    1    5    5    0    0 -0.14019673878E+02 -0.16357338011E+02 -0.80134876397E+01  0.22985424656E+02  0.00000000000E+00 0.  1.
         12    1    5    5    0    0  0.57802723553E+02  0.27967445954E+02 -0.85666247524E+02  0.10706091186E+03  0.00000000000E+00 0. -1.
          5    1    4    4  502    0 -0.77060877136E+02 -0.21496243486E+02  0.13517073110E+02  0.81272803165E+02  0.47000000000E+01 0. -1.
         -5    1    4    4    0  502  0.81675131199E+01  0.26873227833E+02 -0.64288861568E+02  0.70313770816E+02  0.47000000000E+01 0. -1.
          1    1    1    2  503    0 -0.31444694330E+02  0.51294052755E+02  0.83883829888E+03  0.84099318685E+03  0.00000000000E+00 0. -1.
         -2    1    1    2    0  501  0.86750629767E+01 -0.53805939602E+02 -0.29212928766E+03  0.29716974369E+03  0.00000000000E+00 0.  1.
<mgrwt>
<rscale>  0 0.57222646E+02</rscale>
<asrwt>0</asrwt>
<pdfrwt beam="1">  1        2 0.13472338E+00 0.60080439E+02</pdfrwt>
<pdfrwt beam="2">  1       -1 0.13757069E+00 0.54500788E+02</pdfrwt>
<totfact> 0.20227802E+01</totfact>
</mgrwt>
</event>
<event>
13    1  0.2101801E-008  0.3493727E+03  0.7546771E-02  0.1195476E+00
          2   -1    0    0  503    0  0.00000000000E+00  0.00000000000E+00  0.25021978107E+04  0.25021978107E+04  0.00000000000E+00 0. -1.
         -3   -1    0    0    0  501 -0.00000000000E+00 -0.00000000000E+00 -0.16848457622E+04  0.16848457622E+04  0.00000000000E+00 0.  1.
         24    2    1    2    0    0 -0.35139187721E+02 -0.17489809980E+01 -0.40890055623E+02  0.10238067860E+03  0.87017154942E+02 0.  0.
         25    2    1    2    0    0  0.10390708731E+03 -0.86922613992E+02  0.25541227765E+03  0.31498000245E+03  0.12499898701E+03 0.  0.
         24    2    1    2    0    0  0.20831921394E+03 -0.10257791934E+03  0.13808380543E+03  0.28192058940E+03  0.80578886647E+02 0.  0.
        -13    1    5    5    0    0  0.21423777042E+03 -0.91026732606E+02  0.13184707360E+03  0.26752072656E+03  0.00000000000E+00 0.  1.
         14    1    5    5    0    0 -0.59185564808E+01 -0.11551186738E+02  0.62367318327E+01  0.14399862841E+02  0.00000000000E+00 0. -1.
        -13    1    3    3    0    0  0.19700468965E+02 -0.14551928081E+02 -0.38977578529E+02  0.46033886609E+02  0.00000000000E+00 0.  1.
         14    1    3    3    0    0 -0.54839656686E+02  0.12802947083E+02 -0.19124770939E+01  0.56346791995E+02  0.00000000000E+00 0. -1.
          5    1    4    4  502    0 -0.24705308052E+01  0.19956041476E+02  0.84585044112E+02  0.87069321815E+02  0.47000000000E+01 0.  1.
         -5    1    4    4    0  502  0.10637761811E+03 -0.10687865547E+03  0.17082723354E+03  0.22791068064E+03  0.47000000000E+01 0.  1.
          1    1    1    2  503    0 -0.33656558716E+02 -0.59092770793E+02  0.19554883089E+04  0.19566704490E+04  0.00000000000E+00 0. -1.
         -4    1    1    2    0  501 -0.24343055481E+03  0.25034228513E+03 -0.14907422880E+04  0.15310918535E+04  0.00000000000E+00 0.  1.
<mgrwt>
<rscale>  0 0.15414017E+03</rscale>
<asrwt>0</asrwt>
<pdfrwt beam="1">  1        2 0.36797027E+00 0.68005290E+02</pdfrwt>
<pdfrwt beam="2">  1       -3 0.24777143E+00 0.34937271E+03</pdfrwt>
<totfact> 0.27772855E-01</totfact>
</mgrwt>
</event>
<event>
13    1  0.2101801E-008  0.1190533E+03  0.7546771E-02  0.1388281E+00
         -1   -1    0    0    0  501 -0.00000000000E+00  0.00000000000E+00  0.18979687334E+03  0.18979687334E+03  0.00000000000E+00 0.  1.
          2   -1    0    0  503    0  0.00000000000E+00 -0.00000000000E+00 -0.25753435386E+04  0.25753435386E+04  0.00000000000E+00 0. -1.
         24    2    1    2    0    0  0.36189269094E+02 -0.13306689438E+03 -0.37841227939E+02  0.16521868829E+03  0.82757445894E+02 0.  0.
         25    2    1    2    0    0 -0.14539804822E+02  0.17639967728E+03 -0.12924196444E+04  0.13104594653E+04  0.12500888297E+03 0.  0.
         24    2    1    2    0    0 -0.67054606573E+02  0.99356778478E+02 -0.61688526989E+03  0.63354584065E+03  0.80404019208E+02 0.  0.
        -11    1    5    5    0    0  0.60153581366E+01  0.36172263297E+02 -0.79525606616E+02  0.87572480113E+02  0.00000000000E+00 0.  1.
         12    1    5    5    0    0 -0.73069964709E+02  0.63184515181E+02 -0.53735966328E+03  0.54597336054E+03  0.00000000000E+00 0. -1.
        -13    1    3    3    0    0 -0.40248885394E+01 -0.87403418993E+02  0.96577950583E+01  0.88027441090E+02  0.00000000000E+00 0.  1.
         14    1    3    3    0    0  0.40214157634E+02 -0.45663475384E+02 -0.47499022997E+02  0.77191247199E+02  0.00000000000E+00 0. -1.
          5    1    4    4  502    0 -0.62999610657E+02  0.13197326252E+03 -0.10039570239E+04  0.10145628068E+04  0.47000000000E+01 0.  1.
         -5    1    4    4    0  502  0.48459805835E+02  0.44426414753E+02 -0.28846262049E+03  0.29589665853E+03  0.47000000000E+01 0.  1.
          1    1    1    2  503    0  0.17747682906E+02 -0.27392210174E+02 -0.51417069303E+03  0.51520560458E+03  0.00000000000E+00 0. -1.
         -2    1    1    2    0  501  0.27657459395E+02 -0.11529735120E+03  0.75770170042E+02  0.14071081310E+03  0.00000000000E+00 0.  1.
<mgrwt>
<rscale>  0 0.62336153E+02</rscale>
<asrwt>0</asrwt>
<pdfrwt beam="2">  1        2 0.37872698E+00 0.32639139E+02</pdfrwt>
<pdfrwt beam="1">  1       -1 0.27911306E-01 0.11905326E+03</pdfrwt>
<totfact> 0.73516561E+01</totfact>
</mgrwt>
</event>
<event>
13    1  0.2101801E-008  0.9076240E+02  0.7546771E-02  0.1344400E+00
          2   -1    0    0  502    0  0.00000000000E+00  0.00000000000E+00  0.23187422552E+04  0.23187422552E+04  0.00000000000E+00 0. -1.
          2   -1    0    0  503    0 -0.00000000000E+00 -0.00000000000E+00 -0.17797901452E+04  0.17797901452E+04  0.00000000000E+00 0. -1.
         24    2    1    2    0    0  0.11301275568E+03 -0.77013122229E+01 -0.69583057436E+03  0.70920956303E+03  0.77245212914E+02 0.  0.
         25    2    1    2    0    0 -0.74172932253E+01  0.18768627358E+03  0.42775229188E+03  0.48360933635E+03  0.12499925387E+03 0.  0.
         24    2    1    2    0    0 -0.95066997530E+02 -0.15254961550E+03 -0.86347455791E+02  0.21173492645E+03  0.71180592499E+02 0.  0.
        -11    1    5    5    0    0 -0.10348394843E+03 -0.12996262130E+03 -0.87181573567E+02  0.18761619676E+03  0.00000000000E+00 0.  1.
         12    1    5    5    0    0  0.84169508963E+01 -0.22586994198E+02  0.83411777669E+00  0.24118729688E+02  0.00000000000E+00 0. -1.
        -13    1    3    3    0    0  0.10852028505E+03 -0.27378471903E+02 -0.50168040607E+03  0.51401309596E+03  0.00000000000E+00 0.  1.
         14    1    3    3    0    0  0.44924706274E+01  0.19677159680E+02 -0.19415016830E+03  0.19519646706E+03  0.00000000000E+00 0. -1.
          5    1    4    4  501    0 -0.22243585573E+01  0.20580427958E+03  0.39770576912E+03  0.44783068012E+03  0.47000000000E+01 0. -1.
         -5    1    4    4    0  501 -0.51929346680E+01 -0.18118005998E+02  0.30046522760E+02  0.35778656232E+02  0.47000000000E+01 0. -1.
          1    1    1    2  502    0  0.26036887174E+02  0.55929769871E+02  0.17908445769E+04  0.17919069053E+04  0.00000000000E+00 0. -1.
          1    1    1    2  503    0 -0.36565352094E+02 -0.83365115732E+02 -0.89746672862E+03  0.90207166926E+03  0.00000000000E+00 0. -1.
<mgrwt>
<rscale>  0 0.74829330E+02</rscale>
<asrwt>0</asrwt>
<pdfrwt beam="1">  1        2 0.34099151E+00 0.61693263E+02</pdfrwt>
<pdfrwt beam="2">  1        2 0.26173385E+00 0.90762400E+02</pdfrwt>
<totfact> 0.12528162E+01</totfact>
</mgrwt>
</event>
<event>
13    1  0.2101801E-008  0.4603290E+02  0.7546771E-02  0.1587697E+00
          2   -1    0    0  503    0  0.00000000000E+00  0.00000000000E+00  0.21043948521E+04  0.21043948521E+04  0.00000000000E+00 0. -1.
          2   -1    0    0  502    0 -0.00000000000E+00 -0.00000000000E+00 -0.33239762389E+03  0.33239762389E+03  0.00000000000E+00 0. -1.
         24    2    1    2    0    0 -0.33436259009E+02 -0.97324391913E-01  0.34375961630E+02  0.92438333230E+02  0.79026235035E+02 0.  0.
         25    2    1    2    0    0 -0.58658009459E+02 -0.15043420615E+02 -0.35953712863E+02  0.14347627799E+03  0.12500282517E+03 0.  0.
         24    2    1    2    0    0  0.12564928909E+03  0.57772558613E+02  0.10105698904E+04  0.10222724508E+04  0.68293835565E+02 0.  0.
        -11    1    3    3    0    0 -0.62878840321E+01  0.16095625857E+02  0.53002178129E+02  0.55747982418E+02  0.00000000000E+00 0.  1.
         12    1    3    3    0    0 -0.27148374976E+02 -0.16192950248E+02 -0.18626216498E+02  0.36690350811E+02  0.00000000000E+00 0. -1.
        -11    1    5    5    0    0  0.48447903469E+02  0.47073859150E+02  0.30387577077E+03  0.31129348150E+03  0.00000000000E+00 0.  1.
         12    1    5    5    0    0  0.77201385625E+02  0.10698699463E+02  0.70669411960E+03  0.71097896930E+03  0.00000000000E+00 0. -1.
          5    1    4    4  501    0  0.35261367529E+01 -0.55010948478E+01  0.42243403193E+02  0.43003381242E+02  0.47000000000E+01 0.  1.
         -5    1    4    4    0  501 -0.62184146212E+02 -0.95423257673E+01 -0.78197116056E+02  0.10047289675E+03  0.47000000000E+01 0.  1.
          1    1    1    2  502    0 -0.39967860001E+02 -0.22819226309E+02 -0.20513852042E+03  0.21023786405E+03  0.00000000000E+00 0. -1.
          1    1    1    2  503    0  0.64128393750E+01 -0.19812587297E+02  0.96814360949E+03  0.96836754991E+03  0.00000000000E+00 0. -1.
<mgrwt>
<rscale>  0 0.30961521E+02</rscale>
<asrwt>0</asrwt>
<pdfrwt beam="1">  1        2 0.30946982E+00 0.20824580E+02</pdfrwt>
<pdfrwt beam="2">  1        2 0.48882005E-01 0.46032900E+02</pdfrwt>
<totfact> 0.15584489E+02</totfact>
</mgrwt>
</event>
<event>
13    1  0.2101801E-008  0.1547943E+03  0.7546771E-02  0.1249247E+00
          2   -1    0    0  503    0  0.00000000000E+00  0.00000000000E+00  0.20590095553E+04  0.20590095553E+04  0.00000000000E+00 0. -1.
         -1   -1    0    0    0  501 -0.00000000000E+00 -0.00000000000E+00 -0.68347976705E+03  0.68347976705E+03  0.00000000000E+00 0.  1.
         24    2    1    2    0    0 -0.27429433179E+03 -0.25156655022E+03 -0.23266069320E+03  0.44638983813E+03  0.81300552141E+02 0.  0.
         25    2    1    2    0    0  0.31227095942E+03  0.14620632754E+02  0.68684313937E+03  0.76492217996E+03  0.12500211316E+03 0.  0.
         24    2    1    2    0    0  0.17101001679E+02  0.83450911799E+01  0.35238033037E+03  0.36164975639E+03  0.79098446646E+02 0.  0.
        -13    1    3    3    0    0 -0.24616671661E+03 -0.20043072054E+03 -0.16753620403E+03  0.35894136814E+03  0.00000000000E+00 0.  1.
         14    1    3    3    0    0 -0.28127615181E+02 -0.51135829687E+02 -0.65124489164E+02  0.87448469983E+02  0.00000000000E+00 0. -1.
        -13    1    5    5    0    0  0.18608307694E+02  0.38539152006E+02  0.12188016240E+03  0.12917549821E+03  0.00000000000E+00 0.  1.
         14    1    5    5    0    0 -0.15073060146E+01 -0.30194060827E+02  0.23050016797E+03  0.23247425818E+03  0.00000000000E+00 0. -1.
          5    1    4    4  502    0  0.37983175986E+02 -0.31946904563E+01  0.21856922474E+03  0.22191783099E+03  0.47000000000E+01 0. -1.
         -5    1    4    4    0  502  0.27428778343E+03  0.17815323211E+02  0.46827391463E+03  0.54300434897E+03  0.47000000000E+01 0. -1.
          1    1    1    2  503    0  0.65772165048E+01  0.88612634493E+02  0.84729199683E+03  0.85193848761E+03  0.00000000000E+00 0. -1.
         -2    1    1    2    0  501 -0.61654845808E+02  0.13998819179E+03 -0.27832498513E+03  0.31758906027E+03  0.00000000000E+00 0.  1.
<mgrwt>
<rscale>  0 0.11634754E+03</rscale>
<asrwt>0</asrwt>
<pdfrwt beam="1">  1        2 0.30279552E+00 0.87449929E+02</pdfrwt>
<pdfrwt beam="2">  1       -1 0.10051173E+00 0.15479430E+03</pdfrwt>
<totfact> 0.10257243E+01</totfact>
</mgrwt>
</event>
<event>
13    1  0.2101801E-008  0.2148913E+03  0.7546771E-02  0.1295001E+00
          2   -1    0    0  503    0  0.00000000000E+00  0.00000000000E+00  0.26917533106E+04  0.26917533106E+04  0.00000000000E+00 0. -1.
          2   -1    0    0  502    0 -0.00000000000E+00 -0.00000000000E+00 -0.13448240938E+04  0.13448240938E+04  0.00000000000E+00 0. -1.
         24    2    1    2    0    0  0.87436881438E+02  0.12031126910E+03 -0.51436926251E+02  0.17673531907E+03  0.80433860506E+02 0.  0.
         25    2    1    2    0    0 -0.29094014303E+03 -0.16338107836E+03  0.22047520483E+03  0.41901424707E+03  0.12499631878E+03 0.  0.
         24    2    1    2    0    0  0.18995701914E+02 -0.62618041671E+00  0.11843393845E+02  0.83798567009E+02  0.80750882731E+02 0.  0.
        -11    1    5    5    0    0  0.42175944559E+01 -0.28129455691E+02 -0.23314768460E+02  0.36778156680E+02  0.00000000000E+00 0.  1.
         12    1    5    5    0    0  0.14778107458E+02  0.27503275274E+02  0.35158162304E+02  0.47020410329E+02  0.00000000000E+00 0. -1.
        -13    1    3    3    0    0  0.38805363912E+02  0.73564403455E+01 -0.34791892223E+02  0.52635057209E+02  0.00000000000E+00 0.  1.
         14    1    3    3    0    0  0.48631517525E+02  0.11295482875E+03 -0.16645034027E+02  0.12410026186E+03  0.00000000000E+00 0. -1.
          5    1    4    4  501    0 -0.10794241600E+03 -0.12912431827E+03  0.84207878346E+02  0.18824906777E+03  0.47000000000E+01 0.  1.
         -5    1    4    4    0  501 -0.18299772703E+03 -0.34256760091E+02  0.13626732648E+03  0.23076517930E+03  0.47000000000E+01 0.  1.
          1    1    1    2  502    0  0.21164751307E+03  0.13597896605E+02 -0.10850420530E+04  0.11055748863E+04  0.00000000000E+00 0. -1.
          1    1    1    2  503    0 -0.27139953394E+02  0.30098093076E+02  0.22510895973E+04  0.22514543849E+04  0.00000000000E+00 0. -1.
<mgrwt>
<rscale>  0 0.93321966E+02</rscale>
<asrwt>0</asrwt>
<pdfrwt beam="1">  1        2 0.39584608E+00 0.40527426E+02</pdfrwt>
<pdfrwt beam="2">  1        2 0.19776825E+00 0.21489125E+03</pdfrwt>
<totfact> 0.13569558E+01</totfact>
</mgrwt>
</event>
<event>
13    1  0.2101801E-008  0.7915691E+02  0.7546771E-02  0.1338134E+00
          2   -1    0    0  503    0  0.00000000000E+00  0.00000000000E+00  0.10068354675E+04  0.10068354675E+04  0.00000000000E+00 0. -1.
          2   -1    0    0  502    0 -0.00000000000E+00 -0.00000000000E+00 -0.12802885059E+04  0.12802885059E+04  0.00000000000E+00 0. -1.
         24    2    1    2    0    0  0.99861919557E+01  0.27567694822E+02 -0.29267126552E+03  0.30511196298E+03  0.81099558986E+02 0.  0.
         25    2    1    2    0    0 -0.11248286262E+03 -0.52844748980E+02 -0.11553669207E+03  0.21075547600E+03  0.12499672625E+03 0.  0.
         24    2    1    2    0    0 -0.44930250983E+02 -0.83201512042E+01  0.91044437181E+02  0.12796689890E+03  0.77449888981E+02 0.  0.
        -11    1    5    5    0    0 -0.25088358352E+02  0.12656440579E+02  0.94774763219E+02  0.98852753913E+02  0.00000000000E+00 0.  1.
         12    1    5    5    0    0 -0.19841892631E+02 -0.20976591783E+02 -0.37303260380E+01  0.29114144988E+02  0.00000000000E+00 0. -1.
        -13    1    3    3    0    0  0.28891239279E+02 -0.16059700883E+02 -0.69880165020E+02  0.77303655559E+02  0.00000000000E+00 0.  1.
         14    1    3    3    0    0 -0.18905047324E+02  0.43627395705E+02 -0.22279110050E+03  0.22780830742E+03  0.00000000000E+00 0. -1.
          5    1    4    4  501    0 -0.51909696895E+02  0.21688498556E+02 -0.97873950526E+02  0.11298852947E+03  0.47000000000E+01 0.  1.
         -5    1    4    4    0  501 -0.60573165729E+02 -0.74533247535E+02 -0.17662741540E+02  0.97766946527E+02  0.47000000000E+01 0.  1.
          1    1    1    2  502    0  0.68651238688E+02  0.29386441021E+02 -0.79619407978E+03  0.79968841943E+03  0.00000000000E+00 0. -1.
          1    1    1    2  503    0  0.78775682963E+02  0.42107643408E+01  0.83990456177E+03  0.84360121601E+03  0.00000000000E+00 0. -1.
<mgrwt>
<rscale>  0 0.76883989E+02</rscale>
<asrwt>0</asrwt>
<pdfrwt beam="1">  1        2 0.14806404E+00 0.79156905E+02</pdfrwt>
<pdfrwt beam="2">  1        2 0.18827772E+00 0.74676338E+02</pdfrwt>
<totfact> 0.96635717E+01</totfact>
</mgrwt>
</event>
<event>
13    1  0.2101801E-008  0.6932717E+02  0.7546771E-02  0.1449414E+00
          4   -1    0    0  503    0 -0.00000000000E+00  0.00000000000E+00  0.32842378821E+03  0.32842378821E+03  0.00000000000E+00 0. -1.
          2   -1    0    0  502    0  0.00000000000E+00 -0.00000000000E+00 -0.24217630734E+04  0.24217630734E+04  0.00000000000E+00 0. -1.
         24    2    1    2    0    0 -0.20296031216E+02 -0.12665370147E+03  0.10599757133E+03  0.18579938784E+03  0.82660984847E+02 0.  0.
         25    2    1    2    0    0  0.37315406240E+02  0.14591711069E+02 -0.95024016225E+03  0.95926323219E+03  0.12499690039E+03 0.  0.
         24    2    1    2    0    0 -0.47699167765E+02  0.40381054916E+02 -0.16933390727E+03  0.19460791284E+03  0.72749071375E+02 0.  0.
        -13    1    5    5    0    0 -0.91164666794E+01 -0.19337977985E+02 -0.64398448099E+02  0.67854458032E+02  0.00000000000E+00 0.  1.
         14    1    5    5    0    0 -0.38582701086E+02  0.59719032900E+02 -0.10493545917E+03  0.12675345481E+03  0.00000000000E+00 0. -1.
        -13    1    3    3    0    0 -0.34539052438E+02 -0.12309753156E+03  0.67453285537E+02  0.14455412187E+03  0.00000000000E+00 0.  1.
         14    1    3    3    0    0  0.14243021222E+02 -0.35561699093E+01  0.38544285795E+02  0.41245265975E+02  0.00000000000E+00 0. -1.
          5    1    4    4  501    0  0.34175492267E+02  0.34541488463E+02 -0.13163752694E+03  0.14039803131E+03  0.47000000000E+01 0.  1.
         -5    1    4    4    0  501  0.31399139733E+01 -0.19949777393E+02 -0.81860263531E+03  0.81886520088E+03  0.47000000000E+01 0.  1.
          1    1    1    2  502    0 -0.42230985487E+01  0.69196025875E+02 -0.12423113918E+04  0.12442441556E+04  0.00000000000E+00 0. -1.
          3    1    1    2  503    0  0.34902891290E+02  0.24849096093E+01  0.16254860486E+03  0.16627217308E+03  0.00000000000E+00 0. -1.
<mgrwt>
<rscale>  0 0.49252851E+02</rscale>
<asrwt>0</asrwt>
<pdfrwt beam="2">  1        2 0.35614163E+00 0.69327169E+02</pdfrwt>
<pdfrwt beam="1">  1        4 0.48297616E-01 0.34991236E+02</pdfrwt>
<totfact> 0.11231817E+01</totfact>
</mgrwt>
</event>
<event>
13    1  0.2101801E-008  0.1573593E+03  0.7546771E-02  0.1392702E+00
          2   -1    0    0  503    0  0.00000000000E+00  0.00000000000E+00  0.48297460379E+03  0.48297460379E+03  0.00000000000E+00 0. -1.
          2   -1    0    0  502    0 -0.00000000000E+00 -0.00000000000E+00 -0.34661860730E+04  0.34661860730E+04  0.00000000000E+00 0. -1.
         24    2    1    2    0    0  0.11152449481E+03 -0.85154721981E+02 -0.96377962678E+03  0.97737277245E+03  0.81837202488E+02 0.  0.
         25    2    1    2    0    0 -0.41316541121E+03  0.18569156489E+03  0.97902758176E+01  0.47000728571E+03  0.12499593922E+03 0.  0.
         24    2    1    2    0    0  0.13915024418E+03 -0.32797208725E+02 -0.29413070506E+03  0.33648356231E+03  0.79182502446E+02 0.  0.
        -13    1    3    3    0    0  0.79432660442E+02 -0.88815017454E+02 -0.87140990712E+03  0.87951855074E+03  0.00000000000E+00 0.  1.
         14    1    3    3    0    0  0.32091834370E+02  0.36602954732E+01 -0.92369719658E+02  0.97854221707E+02  0.00000000000E+00 0. -1.
        -13    1    5    5    0    0  0.57929787438E+02 -0.53620515810E+02 -0.15756277762E+03  0.17623010208E+03  0.00000000000E+00 0.  1.
         14    1    5    5    0    0  0.81220456745E+02  0.20823307085E+02 -0.13656792743E+03  0.16025346023E+03  0.00000000000E+00 0. -1.
          5    1    4    4  501    0 -0.34928258556E+03  0.13884296432E+03 -0.37277563440E+02  0.37773985764E+03  0.47000000000E+01 0.  1.
         -5    1    4    4    0  501 -0.63882825657E+02  0.46848600578E+02  0.47067839258E+02  0.92267428069E+02  0.47000000000E+01 0.  1.
          1    1    1    2  502    0  0.14976778167E+03 -0.47587214010E+02 -0.19463574412E+04  0.19526910202E+04  0.00000000000E+00 0. -1.
          1    1    1    2  503    0  0.12722890553E+02 -0.20152420177E+02  0.21126602804E+03  0.21260603610E+03  0.00000000000E+00 0. -1.
<mgrwt>
<rscale>  0 0.61239515E+02</rscale>
<asrwt>0</asrwt>
<pdfrwt beam="1">  1        2 0.71025677E-01 0.23832582E+02</pdfrwt>
<pdfrwt beam="2">  1        2 0.50973324E+00 0.15735929E+03</pdfrwt>
<totfact> 0.15918805E+01</totfact>
</mgrwt>
</event>
<event>
13    1  0.2101801E-008  0.1208327E+03  0.7546771E-02  0.1268345E+00
          2   -1    0    0  502    0  0.00000000000E+00  0.00000000000E+00  0.30135589769E+04  0.30135589769E+04  0.00000000000E+00 0. -1.
          2   -1    0    0  503    0 -0.00000000000E+00 -0.00000000000E+00 -0.10061994632E+04  0.10061994632E+04  0.00000000000E+00 0. -1.
         24    2    1    2    0    0 -0.61767565884E+03  0.27700328344E+03  0.67117162496E+03  0.95673870640E+03  0.81385278844E+02 0.  0.
         25    2    1    2    0    0  0.22022612043E+03  0.57128798041E+02  0.37894792782E+03  0.45933719145E+03  0.12500351899E+03 0.  0.
         24    2    1    2    0    0  0.35661868522E+03 -0.39881399210E+03  0.43131435714E+03  0.69517146788E+03  0.10488950439E+03 0.  0.
        -11    1    3    3    0    0 -0.46288489037E+03  0.24469458730E+03  0.50814591316E+03  0.72962328077E+03  0.00000000000E+00 0.  1.
         12    1    3    3    0    0 -0.15479076847E+03  0.32308696148E+02  0.16302571180E+03  0.22711542563E+03  0.00000000000E+00 0. -1.
        -13    1    5    5    0    0  0.20861178268E+03 -0.17926019671E+03  0.17108841115E+03  0.32392026553E+03  0.00000000000E+00 0.  1.
         14    1    5    5    0    0  0.14800690255E+03 -0.21955379540E+03  0.26022594599E+03  0.37125120235E+03  0.00000000000E+00 0. -1.
          5    1    4    4  501    0  0.47329635302E+02  0.31669896805E+01  0.19654155542E+03  0.20223945512E+03  0.47000000000E+01 0.  1.
         -5    1    4    4    0  501  0.17289648512E+03  0.53961808361E+02  0.18240637241E+03  0.25709773633E+03  0.47000000000E+01 0.  1.
          1    1    1    2  502    0 -0.79130497810E+02  0.48523779078E+02  0.12101285750E+04  0.12136833858E+04  0.00000000000E+00 0. -1.
          1    1    1    2  503    0  0.11996135100E+03  0.16158131539E+02 -0.68420297128E+03  0.69482768861E+03  0.00000000000E+00 0. -1.
<mgrwt>
<rscale>  0 0.10590611E+03</rscale>
<asrwt>0</asrwt>
<pdfrwt beam="1">  1        2 0.44317043E+00 0.92823450E+02</pdfrwt>
<pdfrwt beam="2">  1        2 0.14797051E+00 0.12083265E+03</pdfrwt>
<totfact> 0.12940479E+01</totfact>
</mgrwt>
</event>
<event>
13    1  0.2101801E-008  0.8272085E+02  0.7546771E-02  0.1489710E+00
          2   -1    0    0  503    0  0.00000000000E+00  0.00000000000E+00  0.27459763855E+04  0.27459763855E+04  0.00000000000E+00 0. -1.
          2   -1    0    0  502    0 -0.00000000000E+00 -0.00000000000E+00 -0.10601837266E+04  0.10601837266E+04  0.00000000000E+00 0. -1.
         24    2    1    2    0    0  0.14888060958E+03 -0.89356446767E+02 -0.18124094176E+02  0.19124494494E+03  0.78077754107E+02 0.  0.
         25    2    1    2    0    0 -0.22465665023E+03  0.66309341883E+02  0.16573852271E+04  0.16785163991E+04  0.12499588736E+03 0.  0.
         24    2    1    2    0    0 -0.36617411601E+01  0.49248479899E+01  0.62997414081E+02  0.10449772332E+03  0.83147083669E+02 0.  0.
        -11    1    3    3    0    0  0.22758736446E+02 -0.51172012599E+02  0.89542635347E+01  0.56716080554E+02  0.00000000000E+00 0.  1.
         12    1    3    3    0    0  0.12612187314E+03 -0.38184434168E+02 -0.27078357711E+02  0.13452886438E+03  0.00000000000E+00 0. -1.
        -11    1    5    5    0    0 -0.41351158880E+02  0.15556349317E+02  0.34851653541E+02  0.56272160962E+02  0.00000000000E+00 0.  1.
         12    1    5    5    0    0  0.37689417720E+02 -0.10631501328E+02  0.28145760541E+02  0.48225562360E+02  0.00000000000E+00 0. -1.
          5    1    4    4  501    0 -0.17614863758E+03  0.37559070169E+02  0.15088456744E+04  0.15195645381E+04  0.47000000000E+01 0. -1.
         -5    1    4    4    0  501 -0.48508012649E+02  0.28750271714E+02  0.14853955274E+03  0.15895186109E+03  0.47000000000E+01 0. -1.
          1    1    1    2  502    0  0.82646201717E+02 -0.36104171395E+01 -0.92219880156E+03  0.92590175471E+03  0.00000000000E+00 0. -1.
          1    1    1    2  503    0 -0.32084199054E+01  0.21732674034E+02  0.90573291337E+03  0.90599928998E+03  0.00000000000E+00 0. -1.
<mgrwt>
<rscale>  0 0.42628987E+02</rscale>
<asrwt>0</asrwt>
<pdfrwt beam="1">  1        2 0.40382006E+00 0.21968229E+02</pdfrwt>
<pdfrwt beam="2">  1        2 0.15590937E+00 0.82720848E+02</pdfrwt>
<totfact> 0.21292390E+01</totfact>
</mgrwt>
</event>
<event>
13    1  0.2101801E-008  0.6285177E+02  0.7546771E-02  0.1430561E+00
         -1   -1    0    0    0  501 -0.00000000000E+00  0.00000000000E+00  0.84982780941E+02  0.84982780941E+02  0.00000000000E+00 0.  1.
          2   -1    0    0  503    0  0.00000000000E+00 -0.00000000000E+00 -0.35761719222E+04  0.35761719222E+04  0.00000000000E+00 0. -1.
         24    2    1    2    0    0  0.20348742187E+03 -0.64135550943E+02 -0.54124263559E+03  0.58745060400E+03  0.81450118512E+02 0.  0.
         25    2    1    2    0    0 -0.27344292612E+03  0.16768034070E+03 -0.99067110919E+03  0.10487812435E+04  0.12500047825E+03 0.  0.
         24    2    1    2    0    0  0.30776516994E+02 -0.47819397771E+01 -0.29870973311E+03  0.31087243925E+03  0.80275200907E+02 0.  0.
        -13    1    5    5    0    0 -0.26221332936E+02 -0.21520450181E+01 -0.13403358056E+03  0.13659132592E+03  0.00000000000E+00 0.  1.
         14    1    5    5    0    0  0.56997849930E+02 -0.26298947591E+01 -0.16467615255E+03  0.17428111332E+03  0.00000000000E+00 0. -1.
        -13    1    3    3    0    0  0.15906767891E+03 -0.83001660257E+02 -0.40685670806E+03  0.44466187488E+03  0.00000000000E+00 0.  1.
         14    1    3    3    0    0  0.44419742960E+02  0.18866109314E+02 -0.13438592754E+03  0.14278872913E+03  0.00000000000E+00 0. -1.
          5    1    4    4  502    0 -0.21311551687E+03  0.11577812314E+03 -0.87707502340E+03  0.91000301318E+03  0.47000000000E+01 0.  1.
         -5    1    4    4    0  502 -0.60327409249E+02  0.51902217559E+02 -0.11359608579E+03  0.13877823029E+03  0.47000000000E+01 0.  1.
          1    1    1    2  503    0  0.13317207286E+02 -0.42393314228E+02 -0.16506449557E+04  0.16512429593E+04  0.00000000000E+00 0. -1.
         -2    1    1    2    0  501  0.25861779974E+02 -0.56369535750E+02 -0.99207076950E+01  0.62807457083E+02  0.00000000000E+00 0.  1.
<mgrwt>
<rscale>  0 0.52847604E+02</rscale>
<asrwt>0</asrwt>
<pdfrwt beam="2">  1        2 0.52590757E+00 0.44435809E+02</pdfrwt>
<pdfrwt beam="1">  1       -1 0.12497469E-01 0.62851770E+02</pdfrwt>
<totfact> 0.72602602E+01</totfact>
</mgrwt>
</event>
<event>
13    1  0.2101801E-008  0.1680623E+03  0.7546771E-02  0.1355605E+00
          2   -1    0    0  503    0  0.00000000000E+00  0.00000000000E+00  0.71912802085E+03  0.71912802085E+03  0.00000000000E+00 0. -1.
          2   -1    0    0  502    0 -0.00000000000E+00 -0.00000000000E+00 -0.23280997402E+04  0.23280997402E+04  0.00000000000E+00 0. -1.
         24    2    1    2    0    0  0.22644267561E+03 -0.28511348395E+03 -0.68021852315E+03  0.77566753648E+03  0.79980646713E+02 0.  0.
         25    2    1    2    0    0 -0.76040052156E+02  0.46822156580E+03 -0.99868689154E+02  0.50060855371E+03  0.12498657832E+03 0.  0.
         24    2    1    2    0    0 -0.99348746321E+01 -0.48925230908E+02 -0.54219998391E+02  0.10934647373E+03  0.80774148948E+02 0.  0.
        -11    1    3    3    0    0  0.14463221783E+02 -0.46844495236E+01 -0.68214194164E+02  0.69887803923E+02  0.00000000000E+00 0.  1.
         12    1    3    3    0    0  0.21197945383E+03 -0.28042903443E+03 -0.61200432898E+03  0.70577973256E+03  0.00000000000E+00 0. -1.
        -11    1    5    5    0    0 -0.43132290138E+02 -0.10939990256E+02 -0.24561479662E+02  0.50826608411E+02  0.00000000000E+00 0.  1.
         12    1    5    5    0    0  0.33197415506E+02 -0.37985240652E+02 -0.29658518729E+02  0.58519865318E+02  0.00000000000E+00 0. -1.
          5    1    4    4  501    0 -0.67651887904E+02  0.31604053889E+03 -0.12404562249E+03  0.34621930422E+03  0.47000000000E+01 0.  1.
         -5    1    4    4    0  501 -0.83881642518E+01  0.15218102692E+03  0.24176933334E+02  0.15438924949E+03  0.47000000000E+01 0.  1.
          1    1    1    2  502    0 -0.12801081866E+03 -0.10658371890E+03 -0.12119142581E+04  0.12233082309E+04  0.00000000000E+00 0. -1.
          1    1    1    2  503    0 -0.12456930169E+02 -0.27599132046E+02  0.43724974945E+03  0.43829696621E+03  0.00000000000E+00 0. -1.
<mgrwt>
<rscale>  0 0.71336875E+02</rscale>
<asrwt>0</asrwt>
<pdfrwt beam="1">  1        2 0.10575412E+00 0.30280145E+02</pdfrwt>
<pdfrwt beam="2">  1        2 0.34236760E+00 0.16806226E+03</pdfrwt>
<totfact> 0.42560071E+01</totfact>
</mgrwt>
</event>
<event>
13    1  0.2101801E-008  0.1104415E+03  0.7546771E-02  0.1272830E+00
          2   -1    0    0  502    0  0.00000000000E+00  0.00000000000E+00  0.36704145216E+03  0.36704145216E+03  0.00000000000E+00 0. -1.
          2   -1    0    0  503    0 -0.00000000000E+00 -0.00000000000E+00 -0.28083009408E+04  0.28083009408E+04  0.00000000000E+00 0. -1.
         24    2    1    2    0    0  0.32258683697E+02 -0.10032599601E+03 -0.19674384239E+04  0.19719352963E+04  0.81295345102E+02 0.  0.
         25    2    1    2    0    0  0.26275699001E+02  0.10103330315E+02  0.37921644480E+02  0.13362643586E+03  0.12500193438E+03 0.  0.
         24    2    1    2    0    0  0.43852814891E+02  0.49803470292E+01 -0.11831206179E+03  0.15001825589E+03  0.80992962073E+02 0.  0.
        -11    1    5    5    0    0  0.50718804187E+01  0.35670069249E+02 -0.23302493508E+02  0.42907854933E+02  0.00000000000E+00 0.  1.
         12    1    5    5    0    0  0.38780934473E+02 -0.30689722220E+02 -0.95009568281E+02  0.10711040096E+03  0.00000000000E+00 0. -1.
        -11    1    3    3    0    0 -0.20579101198E+02 -0.13633760553E+01 -0.26139790068E+03  0.26221026044E+03  0.00000000000E+00 0.  1.
         12    1    3    3    0    0  0.52837784895E+02 -0.98962619955E+02 -0.17060405232E+04  0.17097250359E+04  0.00000000000E+00 0. -1.
          5    1    4    4  501    0  0.49149781199E+02  0.44428787929E+02 -0.13252593978E+02  0.67729900604E+02  0.47000000000E+01 0.  1.
         -5    1    4    4    0  501 -0.22874082198E+02 -0.34325457614E+02  0.51174238458E+02  0.65896535255E+02  0.47000000000E+01 0.  1.
          1    1    1    2  502    0  0.54552777904E+02  0.80387680575E+02  0.24434144742E+03  0.26294662518E+03  0.00000000000E+00 0. -1.
          1    1    1    2  503    0 -0.15693997549E+03  0.48546380900E+01 -0.63777209493E+03  0.65681577972E+03  0.00000000000E+00 0. -1.
<mgrwt>
<rscale>  0 0.10363630E+03</rscale>
<asrwt>0</asrwt>
<pdfrwt beam="1">  1        2 0.53976684E-01 0.97250389E+02</pdfrwt>
<pdfrwt beam="2">  1        2 0.41298544E+00 0.11044155E+03</pdfrwt>
<totfact> 0.51482011E+01</totfact>
</mgrwt>
</event>
<event>
13    1  0.2101801E-008  0.8339991E+02  0.7546771E-02  0.1332699E+00
          2   -1    0    0  502    0  0.00000000000E+00  0.00000000000E+00  0.28319651003E+04  0.28319651003E+04  0.00000000000E+00 0. -1.
          2   -1    0    0  503    0 -0.00000000000E+00 -0.00000000000E+00 -0.40709812350E+04  0.40709812350E+04  0.00000000000E+00 0. -1.
         24    2    1    2    0    0  0.44295672804E+03  0.57390867284E+03 -0.17010681564E+04  0.18503056060E+04  0.66454005976E+02 0.  0.
         25    2    1    2    0    0 -0.24414556802E+03 -0.45120972569E+01 -0.62739988883E+03  0.68475261994E+03  0.12501244979E+03 0.  0.
         24    2    1    2    0    0 -0.22971906679E+03 -0.67824180876E+03  0.28060688307E+03  0.77340823647E+03  0.81469482738E+02 0.  0.
        -11    1    3    3    0    0  0.36034027478E+03  0.45730531906E+03 -0.14274163806E+04  0.15415871017E+04  0.00000000000E+00 0.  1.
         12    1    3    3    0    0  0.82616453258E+02  0.11660335378E+03 -0.27365177584E+03  0.30871850428E+03  0.00000000000E+00 0. -1.
        -13    1    5    5    0    0 -0.58001393338E+02 -0.22509365532E+03  0.54960108583E+02  0.23885545594E+03  0.00000000000E+00 0.  1.
         14    1    5    5    0    0 -0.17171767345E+03 -0.45314815343E+03  0.22564677449E+03  0.53455278053E+03  0.00000000000E+00 0. -1.
          5    1    4    4  501    0 -0.83885992794E+02 -0.33048652755E+02 -0.36439374519E+03  0.37541172700E+03  0.47000000000E+01 0. -1.
         -5    1    4    4    0  501 -0.16025957522E+03  0.28536555498E+02 -0.26300614364E+03  0.30934089293E+03  0.47000000000E+01 0. -1.
          1    1    1    2  502    0 -0.38949348666E+02  0.63294758678E+02  0.21997860125E+04  0.22010410671E+04  0.00000000000E+00 0. -1.
          1    1    1    2  503    0  0.69857255433E+02  0.45550474497E+02 -0.13909409850E+04  0.13934388058E+04  0.00000000000E+00 0. -1.
<mgrwt>
<rscale>  0 0.78728508E+02</rscale>
<asrwt>0</asrwt>
<pdfrwt beam="1">  1        2 0.41646545E+00 0.74318761E+02</pdfrwt>
<pdfrwt beam="2">  1        2 0.59867371E+00 0.83399910E+02</pdfrwt>
<totfact> 0.39672660E-01</totfact>
</mgrwt>
</event>
<event>
13    1  0.2101801E-008  0.1452816E+03  0.7546771E-02  0.1252606E+00
          2   -1    0    0  502    0  0.00000000000E+00  0.00000000000E+00  0.29504504323E+04  0.29504504323E+04  0.00000000000E+00 0. -1.
          2   -1    0    0  503    0 -0.00000000000E+00 -0.00000000000E+00 -0.49280189238E+03  0.49280189238E+03  0.00000000000E+00 0. -1.
         24    2    1    2    0    0 -0.89019217258E+02 -0.30725851068E+02 -0.14554656615E+03  0.19159564590E+03  0.81587925857E+02 0.  0.
         25    2    1    2    0    0 -0.18990360748E+02  0.10880142540E+03  0.47383493504E+03  0.50232090233E+03  0.12493341942E+03 0.  0.
         24    2    1    2    0    0 -0.12874287857E+02  0.29040559403E+02  0.97932929227E+02  0.13049729931E+03  0.80184693809E+02 0.  0.
        -11    1    3    3    0    0 -0.32990479132E+02 -0.51896159210E+02 -0.95287193630E+02  0.11340737332E+03  0.00000000000E+00 0.  1.
         12    1    3    3    0    0 -0.56028738127E+02  0.21170308142E+02 -0.50259372515E+02  0.78188272576E+02  0.00000000000E+00 0. -1.
        -11    1    5    5    0    0 -0.48327036117E+01  0.56751782364E+02  0.71037169758E+02  0.91051629930E+02  0.00000000000E+00 0.  1.
         12    1    5    5    0    0 -0.80415842456E+01 -0.27711222961E+02  0.26895759468E+02  0.39445669377E+02  0.00000000000E+00 0. -1.
          5    1    4    4  501    0 -0.25492716400E+02  0.13129125884E+03  0.44601146889E+03  0.46565608942E+03  0.47000000000E+01 0.  1.
         -5    1    4    4    0  501  0.65023556521E+01 -0.22489833439E+02  0.27823466149E+02  0.36664812909E+02  0.47000000000E+01 0.  1.
          1    1    1    2  502    0  0.77566929529E+02  0.42424421816E+02  0.23035933140E+04  0.23052892696E+04  0.00000000000E+00 0. -1.
          1    1    1    2  503    0  0.43316936335E+02 -0.14954055555E+03 -0.27216607218E+03  0.31354920758E+03  0.00000000000E+00 0. -1.
<mgrwt>
<rscale>  0 0.11441509E+03</rscale>
<asrwt>0</asrwt>
<pdfrwt beam="1">  1        2 0.43388976E+00 0.90106469E+02</pdfrwt>
<pdfrwt beam="2">  1        2 0.72470868E-01 0.14528162E+03</pdfrwt>
<totfact> 0.32575873E+01</totfact>
</mgrwt>
</event>
<event>
13    1  0.2101801E-008  0.1748664E+03  0.7546771E-02  0.1381888E+00
         -3   -1    0    0    0  501 -0.00000000000E+00  0.00000000000E+00  0.33690552369E+03  0.33690552369E+03  0.00000000000E+00 0.  1.
          2   -1    0    0  503    0  0.00000000000E+00 -0.00000000000E+00 -0.12611800004E+04  0.12611800004E+04  0.00000000000E+00 0. -1.
         24    2    1    2    0    0  0.22668688022E+02 -0.16666183568E+02  0.58824640733E+02  0.95110424791E+02  0.69238886872E+02 0.  0.
         25    2    1    2    0    0  0.67072006002E+02  0.20657372377E+03 -0.10515457745E+03  0.27175307014E+03  0.12498355345E+03 0.  0.
         24    2    1    2    0    0 -0.12208972934E+02 -0.32166641738E+02 -0.78574331991E+02  0.11639164327E+03  0.78672340206E+02 0.  0.
        -11    1    3    3    0    0  0.46417071356E+02 -0.25710710553E+01  0.30801435014E+02  0.55766327820E+02  0.00000000000E+00 0.  1.
         12    1    3    3    0    0 -0.23748383334E+02 -0.14095112513E+02  0.28023205719E+02  0.39344096971E+02  0.00000000000E+00 0. -1.
        -13    1    5    5    0    0 -0.27444986156E+02  0.12894728279E+02 -0.56125131937E+02  0.63792881401E+02  0.00000000000E+00 0.  1.
         14    1    5    5    0    0  0.15236013223E+02 -0.45061370016E+02 -0.22449200054E+02  0.52598761865E+02  0.00000000000E+00 0. -1.
          5    1    4    4  502    0 -0.22529768643E+02  0.12502488261E+02 -0.40774316290E+02  0.48461712276E+02  0.47000000000E+01 0. -1.
         -5    1    4    4    0  502  0.89601774645E+02  0.19407123551E+03 -0.64380261160E+02  0.22329135787E+03  0.47000000000E+01 0. -1.
          1    1    1    2  503    0 -0.54531166780E+02 -0.16205490609E+03 -0.94854434775E+03  0.96383184238E+03  0.00000000000E+00 0. -1.
         -4    1    1    2    0  501 -0.23000554310E+02  0.43140076250E+01  0.14917413977E+03  0.15099854349E+03  0.00000000000E+00 0.  1.
<mgrwt>
<rscale>  0 0.63969984E+02</rscale>
<asrwt>0</asrwt>
<pdfrwt beam="2">  1        2 0.18546765E+00 0.17486642E+03</pdfrwt>
<pdfrwt beam="1">  1       -3 0.49544929E-01 0.23401627E+02</pdfrwt>
<totfact> 0.44578188E+01</totfact>
</mgrwt>
</event>
<event>
13    1  0.2101801E-008  0.9748795E+02  0.7546771E-02  0.1290001E+00
          4   -1    0    0  503    0 -0.00000000000E+00  0.00000000000E+00  0.14985214253E+04  0.14985214253E+04  0.00000000000E+00 0. -1.
          2   -1    0    0  502    0  0.00000000000E+00 -0.00000000000E+00 -0.16591617765E+04  0.16591617765E+04  0.00000000000E+00 0. -1.
         24    2    1    2    0    0  0.10007576317E+02  0.73766748761E+01  0.36416185756E+03  0.37331664894E+03  0.81221271581E+02 0.  0.
         25    2    1    2    0    0  0.22072000029E+02 -0.22414377146E+03 -0.10296483948E+04  0.10613792541E+04  0.12499000240E+03 0.  0.
         24    2    1    2    0    0  0.12235477505E+02  0.34456921940E+01  0.40737881061E+03  0.41547231424E+03  0.80611220442E+02 0.  0.
        -11    1    5    5    0    0  0.44480201544E+02  0.14511178786E+02  0.26246993962E+03  0.26660744896E+03  0.00000000000E+00 0.  1.
         12    1    5    5    0    0 -0.32244724039E+02 -0.11065486592E+02  0.14490887099E+03  0.14886486527E+03  0.00000000000E+00 0. -1.
        -11    1    3    3    0    0  0.55840701098E+01  0.42735656415E+02  0.25110603551E+03  0.25477786254E+03  0.00000000000E+00 0.  1.
         12    1    3    3    0    0  0.44235062076E+01 -0.35358981539E+02  0.11305582205E+03  0.11853878640E+03  0.00000000000E+00 0. -1.
          5    1    4    4  501    0  0.26694156433E+02 -0.46049885993E+02 -0.87517206408E+02  0.10254034038E+03  0.47000000000E+01 0.  1.
         -5    1    4    4    0  501 -0.46221564040E+01 -0.17809388546E+03 -0.94213118838E+03  0.95883891373E+03  0.47000000000E+01 0.  1.
          1    1    1    2  502    0 -0.12670962133E+02  0.10231137125E+03 -0.59582528757E+03  0.60467838003E+03  0.00000000000E+00 0. -1.
          3    1    1    2  503    0 -0.31644091719E+02  0.11101003314E+03  0.69329266302E+03  0.70283660448E+03  0.00000000000E+00 0. -1.
<mgrwt>
<rscale>  0 0.95523532E+02</rscale>
<asrwt>0</asrwt>
<pdfrwt beam="2">  1        2 0.24399438E+00 0.93598699E+02</pdfrwt>
<pdfrwt beam="1">  1        4 0.22037080E+00 0.97487948E+02</pdfrwt>
<totfact> 0.78567803E-01</totfact>
</mgrwt>
</event>
<event>
13    1  0.2101801E-008  0.1920293E+03  0.7546771E-02  0.1371398E+00
         -1   -1    0    0    0  501 -0.00000000000E+00  0.00000000000E+00  0.95284321377E+03  0.95284321377E+03  0.00000000000E+00 0.  1.
          2   -1    0    0  503    0  0.00000000000E+00 -0.00000000000E+00 -0.21050530736E+04  0.21050530736E+04  0.00000000000E+00 0. -1.
         24    2    1    2    0    0  0.38745675580E+02  0.19289624204E+03 -0.32621476855E+02  0.21480842703E+03  0.79801704241E+02 0.  0.
         25    2    1    2    0    0  0.12715670243E+03 -0.38563759909E+03 -0.75984760819E+03  0.87056198389E+03  0.12499838122E+03 0.  0.
         24    2    1    2    0    0 -0.71831760628E+02  0.98048164077E+02  0.26428128537E+02  0.14615222410E+03  0.76738401852E+02 0.  0.
        -11    1    5    5    0    0 -0.74938432560E+02  0.39424042649E+02  0.20682856299E+02  0.87165385090E+02  0.00000000000E+00 0.  1.
         12    1    5    5    0    0  0.31066719322E+01  0.58624121428E+02  0.57452722378E+01  0.58986839013E+02  0.00000000000E+00 0. -1.
        -13    1    3    3    0    0  0.11584862596E+02  0.13297227975E+03  0.13947682248E+02  0.13420273493E+03  0.00000000000E+00 0.  1.
         14    1    3    3    0    0  0.27160812984E+02  0.59923962296E+02 -0.46569159102E+02  0.80605692099E+02  0.00000000000E+00 0. -1.
          5    1    4    4  502    0  0.46091225145E+02 -0.83599296467E+02 -0.89950482247E+02  0.13124946728E+03  0.47000000000E+01 0.  1.
         -5    1    4    4    0  502  0.81065477288E+02 -0.30203830263E+03 -0.66989712594E+03  0.73931251661E+03  0.47000000000E+01 0.  1.
          1    1    1    2  503    0  0.23086769626E+02  0.25149521568E+01 -0.10984321159E+04  0.10986775856E+04  0.00000000000E+00 0. -1.
         -2    1    1    2    0  501 -0.11715738701E+03  0.92178240816E+02  0.71226321262E+03  0.72769606668E+03  0.00000000000E+00 0.  1.
<mgrwt>
<rscale>  0 0.66779955E+02</rscale>
<asrwt>0</asrwt>
<pdfrwt beam="2">  1        2 0.30956662E+00 0.23223349E+02</pdfrwt>
<pdfrwt beam="1">  1       -1 0.14012401E+00 0.19202926E+03</pdfrwt>
<totfact> 0.51698389E+00</totfact>
</mgrwt>
</event>
<event>
13    1  0.2101801E-008  0.5535882E+02  0.7546771E-02  0.1436581E+00
          2   -1    0    0  502    0  0.00000000000E+00  0.00000000000E+00  0.18531408154E+04  0.18531408154E+04  0.00000000000E+00 0. -1.
          2   -1    0    0  503    0 -0.00000000000E+00 -0.00000000000E+00 -0.11675253433E+04  0.11675253433E+04  0.00000000000E+00 0. -1.
         24    2    1    2    0    0 -0.40725966949E+02  0.40790779688E+02  0.20553758770E+03  0.22829393287E+03  0.80931623849E+02 0.  0.
         25    2    1    2    0    0 -0.34739322573E+02 -0.10346163433E+03  0.93595836782E+03  0.95055460699E+03  0.12499945708E+03 0.  0.
         24    2    1    2    0    0  0.46955847970E+02  0.10410777457E+02  0.19539537961E+03  0.21716737091E+03  0.81664414939E+02 0.  0.
        -11    1    5    5    0    0  0.21773443170E+02 -0.33397286909E+02  0.11962390799E+03  0.12609258885E+03  0.00000000000E+00 0.  1.
         12    1    5    5    0    0  0.25182404800E+02  0.43808064365E+02  0.75771471626E+02  0.91074782060E+02  0.00000000000E+00 0. -1.
        -13    1    3    3    0    0  0.90130741131E+01 -0.15500004157E+02  0.80118657762E+02  0.82100456487E+02  0.00000000000E+00 0.  1.
         14    1    3    3    0    0 -0.49739041062E+02  0.56290783845E+02  0.12541892994E+03  0.14619347639E+03  0.00000000000E+00 0. -1.
          5    1    4    4  501    0  0.14588807091E+02 -0.29515545737E+02  0.65475609412E+03  0.65560020861E+03  0.47000000000E+01 0.  1.
         -5    1    4    4    0  501 -0.49328129664E+02 -0.73946088597E+02  0.28120227370E+03  0.29495439838E+03  0.47000000000E+01 0.  1.
          1    1    1    2  502    0  0.48208045989E+02  0.51576452210E+00  0.48481743393E+03  0.48720860620E+03  0.00000000000E+00 0. -1.
          1    1    1    2  503    0 -0.19698604437E+02  0.51744312668E+02 -0.11360932969E+04  0.11374416417E+04  0.00000000000E+00 0. -1.
<mgrwt>
<rscale>  0 0.51661334E+02</rscale>
<asrwt>0</asrwt>
<pdfrwt beam="1">  1        2 0.27252071E+00 0.48210805E+02</pdfrwt>
<pdfrwt beam="2">  1        2 0.17169490E+00 0.55358822E+02</pdfrwt>
<totfact> 0.44373487E+01</totfact>
</mgrwt>
</event>
<event>
13    1  0.2101801E-008  0.6482103E+02  0.7546771E-02  0.1507646E+00
          2   -1    0    0  503    0  0.00000000000E+00  0.00000000000E+00  0.36065421216E+04  0.36065421216E+04  0.00000000000E+00 0. -1.
         -1   -1    0    0    0  501 -0.00000000000E+00 -0.00000000000E+00 -0.64076526316E+03  0.64076526316E+03  0.00000000000E+00 0.  1.
         24    2    1    2    0    0  0.19786888395E+03 -0.27581477946E+02  0.33676199743E+03  0.39953191384E+03  0.79399459085E+02 0.  0.
         25    2    1    2    0    0 -0.26613552089E+03  0.46561482578E+02  0.38748686815E+03  0.48863795683E+03  0.12499957091E+03 0.  0.
         24    2    1    2    0    0 -0.67348666211E+01  0.13352542700E+02  0.24316166378E+03  0.25775868312E+03  0.84192013660E+02 0.  0.
        -11    1    3    3    0    0  0.88771800273E+01 -0.17690494918E+02  0.10628772556E+02  0.22466168826E+02  0.00000000000E+00 0.  1.
         12    1    3    3    0    0  0.18899170392E+03 -0.98909830280E+01  0.32613322487E+03  0.37706574501E+03  0.00000000000E+00 0. -1.
        -13    1    5    5    0    0  0.32386177652E+02 -0.13260158668E+02  0.70160635932E+02  0.78404152602E+02  0.00000000000E+00 0.  1.
         14    1    5    5    0    0 -0.39121044274E+02  0.26612701368E+02  0.17300102785E+03  0.17935453052E+03  0.00000000000E+00 0. -1.
          5    1    4    4  502    0 -0.37779238032E+02  0.44839643131E+02  0.14001058414E+03  0.15186480202E+03  0.47000000000E+01 0.  1.
         -5    1    4    4    0  502 -0.22835628286E+03  0.17218394467E+01  0.24747628401E+03  0.33677315481E+03  0.47000000000E+01 0.  1.
          1    1    1    2  503    0  0.51290799837E+02 -0.39527994289E+02  0.25491828921E+04  0.25500052207E+04  0.00000000000E+00 0. -1.
         -2    1    1    2    0  501  0.23710703729E+02  0.71954469567E+01 -0.55081656303E+03  0.55137361021E+03  0.00000000000E+00 0.  1.
<mgrwt>
<rscale>  0 0.40076989E+02</rscale>
<asrwt>0</asrwt>
<pdfrwt beam="1">  1        2 0.53037383E+00 0.64821029E+02</pdfrwt>
<pdfrwt beam="2">  1       -1 0.94230188E-01 0.24778457E+02</pdfrwt>
<totfact> 0.20732959E+00</totfact>
</mgrwt>
</event>
<event>
13    1  0.2101801E-008  0.5840442E+02  0.7546771E-02  0.1528035E+00
          2   -1    0    0  503    0  0.00000000000E+00  0.00000000000E+00  0.47257106487E+03  0.47257106487E+03  0.00000000000E+00 0. -1.
          2   -1    0    0  502    0 -0.00000000000E+00 -0.00000000000E+00 -0.12129112381E+04  0.12129112381E+04  0.00000000000E+00 0. -1.
         24    2    1    2    0    0 -0.26979334036E+02  0.38728590577E+02 -0.10233293421E+03  0.13776386853E+03  0.79240556884E+02 0.  0.
         25    2    1    2    0    0  0.68112135007E+02 -0.31034039393E+02 -0.24684420579E+03  0.28659879921E+03  0.12491771386E+03 0.  0.
         24    2    1    2    0    0 -0.76306007171E+02 -0.46726987908E+01 -0.49238973122E+02  0.12087772053E+03  0.79639851851E+02 0.  0.
        -13    1    3    3    0    0 -0.16356870005E+02  0.64750776308E+01 -0.10230465765E+03  0.10380615013E+03  0.00000000000E+00 0.  1.
         14    1    3    3    0    0 -0.10622464031E+02  0.32253512947E+02 -0.28276554569E-01  0.33957718402E+02  0.00000000000E+00 0. -1.
        -13    1    5    5    0    0 -0.17454637088E+02 -0.24032337374E+02 -0.50865411043E+02  0.58902526568E+02  0.00000000000E+00 0.  1.
         14    1    5    5    0    0 -0.58851370083E+02  0.19359638583E+02  0.16264379208E+01  0.61975193966E+02  0.00000000000E+00 0. -1.
          5    1    4    4  501    0 -0.33066176378E+02 -0.19651057009E+02 -0.38323822712E+02  0.54500838976E+02  0.47000000000E+01 0. -1.
         -5    1    4    4    0  501  0.10117831138E+03 -0.11382982384E+02 -0.20852038308E+03  0.23209796023E+03  0.47000000000E+01 0. -1.
          1    1    1    2  502    0  0.57669628131E+02 -0.11343074037E+02 -0.73955568431E+03  0.74188749924E+03  0.00000000000E+00 0. -1.
          1    1    1    2  503    0 -0.22496421930E+02  0.83212216430E+01  0.39763162422E+03  0.39835441545E+03  0.00000000000E+00 0. -1.
<mgrwt>
<rscale>  0 0.37428502E+02</rscale>
<asrwt>0</asrwt>
<pdfrwt beam="1">  1        2 0.69495745E-01 0.23986074E+02</pdfrwt>
<pdfrwt beam="2">  1        2 0.17836930E+00 0.58404422E+02</pdfrwt>
<totfact> 0.25646831E+02</totfact>
</mgrwt>
</event>
<event>
13    1  0.2101801E-008  0.5779332E+02  0.7546771E-02  0.1486131E+00
          2   -1    0    0  502    0  0.00000000000E+00  0.00000000000E+00  0.89398407432E+03  0.89398407432E+03  0.00000000000E+00 0. -1.
          2   -1    0    0  503    0 -0.00000000000E+00 -0.00000000000E+00 -0.85997598435E+03  0.85997598435E+03  0.00000000000E+00 0. -1.
         24    2    1    2    0    0  0.16049358627E+03  0.11035261680E+03 -0.68365885946E+02  0.21633834068E+03  0.64749455738E+02 0.  0.
         25    2    1    2    0    0  0.55766959186E+02  0.63450997837E+02  0.35451000848E+02  0.15498137088E+03  0.12500587585E+03 0.  0.
         24    2    1    2    0    0 -0.17113553368E+03 -0.21328922648E+03 -0.29217068053E+03  0.40434148131E+03  0.57867624190E+02 0.  0.
        -11    1    5    5    0    0 -0.31310455098E+02 -0.43302444631E+02 -0.94209013149E+02  0.10830874604E+03  0.00000000000E+00 0.  1.
         12    1    5    5    0    0 -0.13982507858E+03 -0.16998678185E+03 -0.19796166738E+03  0.29603273528E+03  0.00000000000E+00 0. -1.
        -13    1    3    3    0    0  0.84057910537E+02  0.40328681344E+02 -0.63031605489E+02  0.11253940711E+03  0.00000000000E+00 0.  1.
         14    1    3    3    0    0  0.76435675729E+02  0.70023935459E+02 -0.53342804571E+01  0.10379893357E+03  0.00000000000E+00 0. -1.
          5    1    4    4  501    0 -0.15418991862E+02  0.67276262694E+02 -0.10591952248E+02  0.69986572173E+02  0.47000000000E+01 0.  1.
         -5    1    4    4    0  501  0.71185951048E+02 -0.38252648563E+01  0.46042953096E+02  0.84994798710E+02  0.47000000000E+01 0.  1.
          1    1    1    2  502    0  0.11956009759E+02  0.29940916129E+02  0.66559812317E+03  0.66637847069E+03  0.00000000000E+00 0. -1.
          1    1    1    2  503    0 -0.57081021534E+02  0.95446957094E+01 -0.30650446758E+03  0.31192039510E+03  0.00000000000E+00 0. -1.
<mgrwt>
<rscale>  0 0.43165322E+02</rscale>
<asrwt>0</asrwt>
<pdfrwt beam="1">  1        2 0.13146825E+00 0.32239799E+02</pdfrwt>
<pdfrwt beam="2">  1        2 0.12646706E+00 0.57793320E+02</pdfrwt>
<totfact> 0.20177324E+02</totfact>
</mgrwt>
</event>
<event>
13    1  0.2101801E-008  0.8677981E+02  0.7546771E-02  0.1365244E+00
          2   -1    0    0  503    0  0.00000000000E+00  0.00000000000E+00  0.15513698581E+04  0.15513698581E+04  0.00000000000E+00 0. -1.
         -1   -1    0    0    0  501 -0.00000000000E+00 -0.00000000000E+00 -0.58567111059E+03  0.58567111059E+03  0.00000000000E+00 0.  1.
         24    2    1    2    0    0  0.16236308387E+02  0.44825494867E+02 -0.16738872871E+03  0.19213776851E+03  0.81394059284E+02 0.  0.
         25    2    1    2    0    0  0.21496838899E+03 -0.10295041491E+03  0.56581621660E+03  0.62656442573E+03  0.12499916969E+03 0.  0.
         24    2    1    2    0    0 -0.14207459085E+03 -0.49937122700E+02  0.46480684512E+02  0.17729182916E+03  0.81197494220E+02 0.  0.
        -11    1    3    3    0    0  0.84368777374E+01  0.63323513675E+02 -0.79506566399E+02  0.10199187414E+03  0.00000000000E+00 0.  1.
         12    1    3    3    0    0  0.77994306495E+01 -0.18498018808E+02 -0.87882162312E+02  0.90145894365E+02  0.00000000000E+00 0. -1.
        -11    1    5    5    0    0 -0.14524171946E+02  0.55821558895E+01 -0.18145431876E+02  0.23903320545E+02  0.00000000000E+00 0.  1.
         12    1    5    5    0    0 -0.12755041890E+03 -0.55519278590E+02  0.64626116388E+02  0.15338850862E+03  0.00000000000E+00 0. -1.
          5    1    4    4  502    0  0.19495808781E+03 -0.10153651618E+03  0.56462993825E+03  0.60592687454E+03  0.47000000000E+01 0.  1.
         -5    1    4    4    0  502  0.20010301176E+02 -0.14138987312E+01  0.11862783530E+01  0.20637551190E+02  0.47000000000E+01 0.  1.
          1    1    1    2  503    0 -0.37948807710E+02  0.38532606751E+02  0.82400639665E+03  0.82577927772E+03  0.00000000000E+00 0. -1.
         -2    1    1    2    0  501 -0.51181298820E+02  0.69529435996E+02 -0.30321582152E+03  0.31526766761E+03  0.00000000000E+00 0.  1.
<mgrwt>
<rscale>  0 0.68507187E+02</rscale>
<asrwt>0</asrwt>
<pdfrwt beam="1">  1        2 0.22814263E+00 0.54082102E+02</pdfrwt>
<pdfrwt beam="2">  1       -1 0.86128105E-01 0.86779812E+02</pdfrwt>
<totfact> 0.26621767E+01</totfact>
</mgrwt>
</event>
<event>
13    1  0.2101801E-008  0.5377716E+02  0.7546771E-02  0.1432550E+00
          2   -1    0    0  502    0  0.00000000000E+00  0.00000000000E+00  0.19550996943E+04  0.19550996943E+04  0.00000000000E+00 0. -1.
          2   -1    0    0  503    0 -0.00000000000E+00 -0.00000000000E+00 -0.10529571758E+04  0.10529571758E+04  0.00000000000E+00 0. -1.
         24    2    1    2    0    0  0.26338523056E+02 -0.10402650722E+03 -0.20886495263E+03  0.24767020639E+03  0.78744718525E+02 0.  0.
         25    2    1    2    0    0 -0.24096996209E+03  0.63032740391E+02  0.97207811197E+03  0.10112384494E+04  0.12501078671E+03 0.  0.
         24    2    1    2    0    0  0.31367569060E+03  0.51850078339E+02  0.32686432017E+02  0.32986178015E+03  0.81605892366E+02 0.  0.
        -11    1    5    5    0    0  0.85058829971E+02 -0.76089098261E+01 -0.20281269950E+02  0.87773743087E+02  0.00000000000E+00 0.  1.
         12    1    5    5    0    0  0.22861686063E+03  0.59458988165E+02  0.52967701967E+02  0.24208803707E+03  0.00000000000E+00 0. -1.
        -13    1    3    3    0    0  0.28116486076E+02 -0.33326785619E+01 -0.74897222530E+02  0.80070203437E+02  0.00000000000E+00 0.  1.
         14    1    3    3    0    0 -0.17779630195E+01 -0.10069382866E+03 -0.13396773010E+03  0.16760000296E+03  0.00000000000E+00 0. -1.
          5    1    4    4  501    0 -0.24931009109E+03  0.77533344788E+02  0.90200230210E+03  0.93904056572E+03  0.47000000000E+01 0.  1.
         -5    1    4    4    0  501  0.83401290035E+01 -0.14500604397E+02  0.70075809865E+02  0.72197883681E+02  0.47000000000E+01 0.  1.
          1    1    1    2  502    0 -0.49064183476E+02 -0.21774640370E+02  0.76082098032E+03  0.76271226106E+03  0.00000000000E+00 0. -1.
          1    1    1    2  503    0 -0.49980068093E+02  0.10918328861E+02 -0.65457805318E+03  0.65657417313E+03  0.00000000000E+00 0. -1.
<mgrwt>
<rscale>  0 0.52451618E+02</rscale>
<asrwt>0</asrwt>
<pdfrwt beam="1">  1        2 0.28751466E+00 0.53777165E+02</pdfrwt>
<pdfrwt beam="2">  1        2 0.15484664E+00 0.51158744E+02</pdfrwt>
<totfact> 0.45430755E+01</totfact>
</mgrwt>
</event>
<event>
13    1  0.2101801E-008  0.1076956E+03  0.7546771E-02  0.1372694E+00
          2   -1    0    0  503    0  0.00000000000E+00  0.00000000000E+00  0.16942304473E+04  0.16942304473E+04  0.00000000000E+00 0. -1.
          2   -1    0    0  502    0 -0.00000000000E+00 -0.00000000000E+00 -0.17130961502E+04  0.17130961502E+04  0.00000000000E+00 0. -1.
         24    2    1    2    0    0  0.21769868996E+03  0.45445455375E+03 -0.38252582102E+03  0.63783809827E+03  0.81177428036E+02 0.  0.
         25    2    1    2    0    0 -0.14785716196E+03 -0.10326631629E+03  0.26075714886E+03  0.34079818226E+03  0.12499375155E+03 0.  0.
         24    2    1    2    0    0 -0.63426586357E+02 -0.42835276892E+03  0.94784828041E+03  0.10461713989E+04  0.92461920122E+02 0.  0.
        -11    1    3    3    0    0  0.93751242851E+02  0.14559748252E+03 -0.17180322729E+03  0.24393497363E+03  0.00000000000E+00 0.  1.
         12    1    3    3    0    0  0.12394744711E+03  0.30885707123E+03 -0.21072259373E+03  0.39390312464E+03  0.00000000000E+00 0. -1.
        -13    1    5    5    0    0 -0.47988366004E+02 -0.39279307686E+03  0.78914317432E+03  0.88280022319E+03  0.00000000000E+00 0.  1.
         14    1    5    5    0    0 -0.15438220353E+02 -0.35559692062E+02  0.15870510609E+03  0.16337117569E+03  0.00000000000E+00 0. -1.
          5    1    4    4  501    0  0.12682499485E+02  0.14808392803E+02  0.22168704904E+02  0.29894410309E+02  0.47000000000E+01 0. -1.
         -5    1    4    4    0  501 -0.16053966145E+03 -0.11807470909E+03  0.23858844396E+03  0.31090377195E+03  0.47000000000E+01 0. -1.
          1    1    1    2  502    0  0.23490864376E+02  0.10516581616E+03 -0.11095455186E+04  0.11147658622E+04  0.00000000000E+00 0. -1.
          1    1    1    2  503    0 -0.29905806016E+02 -0.28001284701E+02  0.26460020745E+03  0.26775305593E+03  0.00000000000E+00 0. -1.
<mgrwt>
<rscale>  0 0.66423956E+02</rscale>
<asrwt>0</asrwt>
<pdfrwt beam="1">  1        2 0.24915154E+00 0.40968637E+02</pdfrwt>
<pdfrwt beam="2">  1        2 0.25192590E+00 0.10769560E+03</pdfrwt>
<totfact> 0.27229847E+01</totfact>
</mgrwt>
</event>
<event>
13    1  0.2101801E-008  0.1156503E+03  0.7546771E-02  0.1383210E+00
          2   -1    0    0  502    0  0.00000000000E+00  0.00000000000E+00  0.12795388689E+04  0.12795388689E+04  0.00000000000E+00 0. -1.
          2   -1    0    0  503    0 -0.00000000000E+00 -0.00000000000E+00 -0.18274890336E+04  0.18274890336E+04  0.00000000000E+00 0. -1.
         24    2    1    2    0    0 -0.52786956402E+02 -0.27375750694E+01 -0.77236213103E+03  0.77836176846E+03  0.80683480680E+02 0.  0.
         25    2    1    2    0    0  0.20171309217E+03  0.37530461188E+02  0.72004463411E+03  0.75906935755E+03  0.12500122958E+03 0.  0.
         24    2    1    2    0    0 -0.45034847693E+02  0.28229727508E+02 -0.15623163114E+02  0.96735980699E+02  0.79301397933E+02 0.  0.
        -13    1    3    3    0    0 -0.62628399110E+02 -0.45215546242E+01 -0.75938965878E+03  0.76198124300E+03  0.00000000000E+00 0.  1.
         14    1    3    3    0    0  0.98414427083E+01  0.17839795548E+01 -0.12972472256E+02  0.16380525451E+02  0.00000000000E+00 0. -1.
        -13    1    5    5    0    0  0.18450374429E+02 -0.90661602775E+01 -0.10085336882E+02  0.22898157105E+02  0.00000000000E+00 0.  1.
         14    1    5    5    0    0 -0.63485222123E+02  0.37295887786E+02 -0.55378262313E+01  0.73837823594E+02  0.00000000000E+00 0. -1.
          5    1    4    4  501    0  0.51178426823E+02  0.68589448267E+02  0.22924760843E+03  0.24474537740E+03  0.47000000000E+01 0.  1.
         -5    1    4    4    0  501  0.15053466535E+03 -0.31058987079E+02  0.49079702568E+03  0.51432398016E+03  0.47000000000E+01 0.  1.
          1    1    1    2  502    0 -0.34611319751E+02  0.52418299093E+01  0.49338194559E+03  0.49462224421E+03  0.00000000000E+00 0. -1.
          1    1    1    2  503    0 -0.69279968327E+02 -0.68264443536E+02 -0.97339145028E+03  0.97823855155E+03  0.00000000000E+00 0. -1.
<mgrwt>
<rscale>  0 0.63627479E+02</rscale>
<asrwt>0</asrwt>
<pdfrwt beam="1">  1        2 0.18816748E+00 0.35006003E+02</pdfrwt>
<pdfrwt beam="2">  1        2 0.26874839E+00 0.11565034E+03</pdfrwt>
<totfact> 0.37876859E+01</totfact>
</mgrwt>
</event>
<event>
13    1  0.2101801E-008  0.1837778E+03  0.7546771E-02  0.1216490E+00
          2   -1    0    0  502    0  0.00000000000E+00  0.00000000000E+00  0.20691600750E+04  0.20691600750E+04  0.00000000000E+00 0. -1.
          2   -1    0    0  503    0 -0.00000000000E+00 -0.00000000000E+00 -0.49808832214E+04  0.49808832214E+04  0.00000000000E+00 0. -1.
         24    2    1    2    0    0 -0.22410913833E+02  0.52734369489E+02 -0.23692615466E+04  0.23712932815E+04  0.79676770157E+02 0.  0.
         25    2    1    2    0    0 -0.16748375739E+02 -0.94412350682E+02  0.30795680404E+03  0.34591166350E+03  0.12499314277E+03 0.  0.
         24    2    1    2    0    0 -0.12227488220E+03  0.12962924940E+03  0.72089931652E+03  0.74706682709E+03  0.81597367929E+02 0.  0.
        -11    1    3    3    0    0  0.22542707078E+02 -0.59181873346E+01 -0.43982129363E+03  0.44043838265E+03  0.00000000000E+00 0.  1.
         12    1    3    3    0    0 -0.44953620911E+02  0.58652556824E+02 -0.19294402530E+04  0.19308548988E+04  0.00000000000E+00 0. -1.
        -13    1    5    5    0    0 -0.10644038527E+03  0.56273087411E+02  0.41651111453E+03  0.43356397972E+03  0.00000000000E+00 0.  1.
         14    1    5    5    0    0 -0.15834496930E+02  0.73356161985E+02  0.30438820199E+03  0.31350284737E+03  0.00000000000E+00 0. -1.
          5    1    4    4  501    0  0.70815011782E+01 -0.27188674243E+02 -0.12866806987E+01  0.28515210208E+02  0.47000000000E+01 0.  1.
         -5    1    4    4    0  501 -0.23829876917E+02 -0.67223676440E+02  0.30924348474E+03  0.31739645329E+03  0.47000000000E+01 0.  1.
          1    1    1    2  502    0  0.19335284067E+03  0.57933837407E+02  0.99492200315E+03  0.10151903481E+04  0.00000000000E+00 0. -1.
          1    1    1    2  503    0 -0.31918668895E+02 -0.14588510561E+03 -0.25662397235E+04  0.25705811763E+04  0.00000000000E+00 0. -1.
<mgrwt>
<rscale>  0 0.13767622E+03</rscale>
<asrwt>0</asrwt>
<pdfrwt beam="1">  1        2 0.30428825E+00 0.18377782E+03</pdfrwt>
<pdfrwt beam="2">  1        2 0.73248283E+00 0.10313944E+03</pdfrwt>
<totfact> 0.14923871E-01</totfact>
</mgrwt>
</event>
<event>
13    1  0.2101801E-008  0.7279760E+02  0.7546771E-02  0.1414894E+00
          2   -1    0    0  502    0  0.00000000000E+00  0.00000000000E+00  0.77260112099E+03  0.77260112099E+03  0.00000000000E+00 0. -1.
          2   -1    0    0  503    0 -0.00000000000E+00 -0.00000000000E+00 -0.18751280354E+04  0.18751280354E+04  0.00000000000E+00 0. -1.
         24    2    1    2    0    0 -0.33391459830E+02 -0.13674065288E+02 -0.36943349030E+03  0.37977274714E+03  0.80276186169E+02 0.  0.
         25    2    1    2    0    0 -0.76321449222E+02 -0.93645477265E+01  0.63383810990E+02  0.15985496557E+03  0.12499377647E+03 0.  0.
         24    2    1    2    0    0  0.31292461049E+02 -0.13853018851E+02 -0.64784664785E+02  0.10639642106E+03  0.77149344611E+02 0.  0.
        -11    1    5    5    0    0  0.56608026559E+02 -0.12588252273E+02 -0.37009957793E+02  0.68794401967E+02  0.00000000000E+00 0.  1.
         12    1    5    5    0    0 -0.25315565510E+02 -0.12647665783E+01 -0.27774706992E+02  0.37602019096E+02  0.00000000000E+00 0. -1.
        -13    1    3    3    0    0 -0.49875987538E+02 -0.20273224402E+01 -0.12635439899E+03  0.13585712463E+03  0.00000000000E+00 0.  1.
         14    1    3    3    0    0  0.16484527707E+02 -0.11646742847E+02 -0.24307909131E+03  0.24391562251E+03  0.00000000000E+00 0. -1.
          5    1    4    4  501    0 -0.79138005414E+02 -0.53106099779E+02  0.18991084802E+02  0.97292512747E+02  0.47000000000E+01 0.  1.
         -5    1    4    4    0  501  0.28165561916E+01  0.43741552052E+02  0.44392726188E+02  0.62562452822E+02  0.47000000000E+01 0.  1.
          1    1    1    2  502    0 -0.93316595216E+01  0.42238268613E+02  0.63285333911E+03  0.63432996148E+03  0.00000000000E+00 0. -1.
          1    1    1    2  503    0  0.87752107525E+02 -0.53466367480E+01 -0.13645459094E+04  0.13673750611E+04  0.00000000000E+00 0. -1.
<mgrwt>
<rscale>  0 0.56115877E+02</rscale>
<asrwt>0</asrwt>
<pdfrwt beam="1">  1        2 0.11361781E+00 0.43256805E+02</pdfrwt>
<pdfrwt beam="2">  1        2 0.27575412E+00 0.72797601E+02</pdfrwt>
<totfact> 0.70550707E+01</totfact>
</mgrwt>
</event>
<event>
13    1  0.2101801E-008  0.8863625E+02  0.7546771E-02  0.1345408E+00
          2   -1    0    0  503    0  0.00000000000E+00  0.00000000000E+00  0.26242828551E+04  0.26242828551E+04  0.00000000000E+00 0. -1.
         -1   -1    0    0    0  501 -0.00000000000E+00 -0.00000000000E+00 -0.87355536530E+03  0.87355536530E+03  0.00000000000E+00 0.  1.
         24    2    1    2    0    0 -0.53822170990E+01  0.32737864078E+01 -0.13615232635E+03  0.16829495730E+03  0.98722088431E+02 0.  0.
         25    2    1    2    0    0  0.44845243155E+02 -0.64073839414E+02  0.49726676116E+03  0.51866824899E+03  0.12500387206E+03 0.  0.
         24    2    1    2    0    0  0.48920653311E+02  0.50161956501E+02  0.30070682594E+02  0.11196253276E+03  0.81987258708E+02 0.  0.
        -13    1    3    3    0    0  0.21897745586E+02  0.20061275153E+02 -0.13280961074E+03  0.13608952468E+03  0.00000000000E+00 0.  1.
         14    1    3    3    0    0 -0.27279962685E+02 -0.16787488745E+02 -0.33427156043E+01  0.32205432617E+02  0.00000000000E+00 0. -1.
        -13    1    5    5    0    0  0.68136568176E+02  0.31863950834E+02  0.48832884309E+01  0.75377382493E+02  0.00000000000E+00 0.  1.
         14    1    5    5    0    0 -0.19215914865E+02  0.18298005667E+02  0.25187394163E+02  0.36585150269E+02  0.00000000000E+00 0. -1.
          5    1    4    4  502    0 -0.21637779273E+02 -0.76066930187E+02  0.28944878067E+03  0.30009508158E+03  0.47000000000E+01 0.  1.
         -5    1    4    4    0  502  0.66483022427E+02  0.11993090773E+02  0.20781798049E+03  0.21857316741E+03  0.47000000000E+01 0.  1.
          1    1    1    2  503    0 -0.29141565384E+02 -0.55435459319E+02  0.20258014281E+04  0.20267692881E+04  0.00000000000E+00 0. -1.
         -2    1    1    2    0  501 -0.59242113983E+02  0.66073555824E+02 -0.66625905575E+03  0.67214319324E+03  0.00000000000E+00 0.  1.
<mgrwt>
<rscale>  0 0.74506036E+02</rscale>
<asrwt>0</asrwt>
<pdfrwt beam="1">  1        2 0.38592395E+00 0.62628436E+02</pdfrwt>
<pdfrwt beam="2">  1       -1 0.12846402E+00 0.88636246E+02</pdfrwt>
<totfact> 0.33317645E+00</totfact>
</mgrwt>
</event>
<event>
13    1  0.2101801E-008  0.8370913E+02  0.7546771E-02  0.1347773E+00
          2   -1    0    0  502    0  0.00000000000E+00  0.00000000000E+00  0.10825926739E+04  0.10825926739E+04  0.00000000000E+00 0. -1.
          2   -1    0    0  503    0 -0.00000000000E+00 -0.00000000000E+00 -0.12928256833E+04  0.12928256833E+04  0.00000000000E+00 0. -1.
         24    2    1    2    0    0  0.78453011173E+02 -0.20307434017E+03  0.20915281426E+02  0.23312835599E+03  0.80729912496E+02 0.  0.
         25    2    1    2    0    0  0.10603131547E+03  0.16366558096E+02 -0.49558943724E+02  0.17202170387E+03  0.12499949447E+03 0.  0.
         24    2    1    2    0    0 -0.58915101362E+02  0.12260159530E+03  0.19389272596E+03  0.25017805413E+03  0.80576232535E+02 0.  0.
        -11    1    5    5    0    0  0.11991499981E+01  0.87728478784E+02  0.95103522378E+02  0.12939244151E+03  0.00000000000E+00 0.  1.
         12    1    5    5    0    0 -0.60114251360E+02  0.34873116512E+02  0.98789203584E+02  0.12078561262E+03  0.00000000000E+00 0. -1.
        -11    1    3    3    0    0  0.10341150947E+02 -0.41581142934E+01  0.19972336975E+02  0.22871894579E+02  0.00000000000E+00 0.  1.
         12    1    3    3    0    0  0.68111860226E+02 -0.19891622588E+03  0.94294445075E+00  0.21025646141E+03  0.00000000000E+00 0. -1.
          5    1    4    4  501    0  0.13275772641E+02  0.56275940207E+02  0.29983492436E+01  0.58088791377E+02  0.47000000000E+01 0.  1.
         -5    1    4    4    0  501  0.92755542829E+02 -0.39909382112E+02 -0.52557292968E+02  0.11393291250E+03  0.47000000000E+01 0.  1.
          1    1    1    2  502    0 -0.61034629927E+02  0.56485764111E+02  0.66871847994E+03  0.67386962613E+03  0.00000000000E+00 0. -1.
          1    1    1    2  503    0 -0.64534595353E+02  0.76204226695E+01 -0.10442005530E+04  0.10462206171E+04  0.00000000000E+00 0. -1.
<mgrwt>
<rscale>  0 0.73754099E+02</rscale>
<asrwt>0</asrwt>
<pdfrwt beam="1">  1        2 0.15920481E+00 0.83709133E+02</pdfrwt>
<pdfrwt beam="2">  1        2 0.19012142E+00 0.64982958E+02</pdfrwt>
<totfact> 0.86961630E+01</totfact>
</mgrwt>
</event>
<event>
13    1  0.2101801E-008  0.2126850E+03  0.7546771E-02  0.1294039E+00
         -1   -1    0    0    0  501 -0.00000000000E+00  0.00000000000E+00  0.21668182163E+04  0.21668182163E+04  0.00000000000E+00 0.  1.
          2   -1    0    0  503    0  0.00000000000E+00 -0.00000000000E+00 -0.41433033591E+04  0.41433033591E+04  0.00000000000E+00 0. -1.
         24    2    1    2    0    0 -0.13428119578E+03 -0.22206674317E+02  0.24497613486E+02  0.16095783776E+03  0.82357249514E+02 0.  0.
         25    2    1    2    0    0  0.24342816969E+03 -0.13332732097E+02 -0.20136504631E+04  0.20322029753E+04  0.12500283881E+03 0.  0.
         24    2    1    2    0    0  0.33746443797E+02 -0.76535742057E+02 -0.29304318376E+03  0.31581470826E+03  0.82873880830E+02 0.  0.
        -11    1    3    3    0    0 -0.67471280872E+02  0.64685799928E+01  0.49656890229E+02  0.84023943117E+02  0.00000000000E+00 0.  1.
         12    1    3    3    0    0 -0.66809914905E+02 -0.28675254310E+02 -0.25159276743E+02  0.76933894647E+02  0.00000000000E+00 0. -1.
        -11    1    5    5    0    0  0.47974604581E+02 -0.87267423254E+02 -0.25661852773E+03  0.27526393629E+03  0.00000000000E+00 0.  1.
         12    1    5    5    0    0 -0.14228160784E+02  0.10731681198E+02 -0.36424656024E+02  0.40550771967E+02  0.00000000000E+00 0. -1.
          5    1    4    4  502    0  0.95197410097E+02 -0.39144379674E+02 -0.12241891812E+04  0.12285178349E+04  0.47000000000E+01 0. -1.
         -5    1    4    4    0  502  0.14823075959E+03  0.25811647577E+02 -0.78946128188E+03  0.80368514036E+03  0.47000000000E+01 0. -1.
          1    1    1    2  503    0 -0.18974450623E+02 -0.36700669230E+02 -0.17429078905E+04  0.17433975116E+04  0.00000000000E+00 0. -1.
         -2    1    1    2    0  501 -0.12391896708E+03  0.14877581770E+03  0.20486187810E+04  0.20577485425E+04  0.00000000000E+00 0.  1.
<mgrwt>
<rscale>  0 0.93739975E+02</rscale>
<asrwt>0</asrwt>
<pdfrwt beam="2">  1        2 0.60930932E+00 0.41315480E+02</pdfrwt>
<pdfrwt beam="1">  1       -1 0.31864974E+00 0.21268500E+03</pdfrwt>
<totfact> 0.25356798E-02</totfact>
</mgrwt>
</event>
<event>
13    1  0.2101801E-008  0.1004775E+03  0.7546771E-02  0.1340690E+00
          2   -1    0    0  502    0  0.00000000000E+00  0.00000000000E+00  0.59436258251E+03  0.59436258251E+03  0.00000000000E+00 0. -1.
          2   -1    0    0  503    0 -0.00000000000E+00 -0.00000000000E+00 -0.15929392502E+04  0.15929392502E+04  0.00000000000E+00 0. -1.
         24    2    1    2    0    0  0.13362940972E+02  0.71460180791E+02 -0.29131604692E+03  0.31043274650E+03  0.78856358483E+02 0.  0.
         25    2    1    2    0    0 -0.41812041833E+01 -0.13093993722E+03 -0.17324544164E+03  0.25059889769E+03  0.12499229916E+03 0.  0.
         24    2    1    2    0    0  0.14218274598E+03  0.81714164108E+02  0.26457349827E+03  0.32103449506E+03  0.78554905388E+02 0.  0.
        -11    1    5    5    0    0  0.15643866651E+02  0.40668109814E+01  0.91907828430E+02  0.93318371408E+02  0.00000000000E+00 0.  1.
         12    1    5    5    0    0  0.12653887933E+03  0.77647353126E+02  0.17266566984E+03  0.22771612366E+03  0.00000000000E+00 0. -1.
        -13    1    3    3    0    0 -0.22293728019E+02  0.60845169657E+02 -0.22765549550E+03  0.23669847826E+03  0.00000000000E+00 0.  1.
         14    1    3    3    0    0  0.35656668991E+02  0.10615011134E+02 -0.63660551419E+02  0.73734268233E+02  0.00000000000E+00 0. -1.
          5    1    4    4  501    0 -0.61302999235E+02 -0.81559385489E+02 -0.75585721616E+02  0.12706408772E+03  0.47000000000E+01 0. -1.
         -5    1    4    4    0  501  0.57121795052E+02 -0.49380551726E+02 -0.97659720022E+02  0.12353480997E+03  0.47000000000E+01 0. -1.
          1    1    1    2  502    0 -0.48429917516E+02  0.31073206226E+02  0.24681049160E+03  0.25342931918E+03  0.00000000000E+00 0. -1.
          1    1    1    2  503    0 -0.10293456526E+03 -0.53307613909E+02 -0.10453991690E+04  0.10518063743E+04  0.00000000000E+00 0. -1.
<mgrwt>
<rscale>  0 0.76036890E+02</rscale>
<asrwt>0</asrwt>
<pdfrwt beam="1">  1        2 0.87406265E-01 0.57541299E+02</pdfrwt>
<pdfrwt beam="2">  1        2 0.23425576E+00 0.10047755E+03</pdfrwt>
<totfact> 0.12435730E+02</totfact>
</mgrwt>
</event>
<event>
13    1  0.2101801E-008  0.6774772E+02  0.7546771E-02  0.1387931E+00
          2   -1    0    0  503    0  0.00000000000E+00  0.00000000000E+00  0.18718426143E+04  0.18718426143E+04  0.00000000000E+00 0. -1.
          2   -1    0    0  502    0 -0.00000000000E+00 -0.00000000000E+00 -0.13072987438E+04  0.13072987438E+04  0.00000000000E+00 0. -1.
         24    2    1    2    0    0  0.15953169967E+03  0.63739373443E+03 -0.13154955529E+02  0.66198228256E+03  0.79538378673E+02 0.  0.
         25    2    1    2    0    0 -0.40389429617E+03 -0.40029871428E+03  0.30720989807E+03  0.65831037828E+03  0.12499987820E+03 0.  0.
         24    2    1    2    0    0  0.22124973635E+03 -0.34956282093E+03 -0.21904492713E+03  0.47843222037E+03  0.98848863325E+02 0.  0.
        -11    1    3    3    0    0  0.14946457741E+01  0.67588055122E+02  0.17630778494E+02  0.69865753495E+02  0.00000000000E+00 0.  1.
         12    1    3    3    0    0  0.15803705389E+03  0.56980567931E+03 -0.30785734023E+02  0.59211652907E+03  0.00000000000E+00 0. -1.
        -11    1    5    5    0    0  0.17074545017E+02 -0.68547363943E+02 -0.73113568035E+02  0.10166550557E+03  0.00000000000E+00 0.  1.
         12    1    5    5    0    0  0.20417519133E+03 -0.28101545698E+03 -0.14593135909E+03  0.37676671481E+03  0.00000000000E+00 0. -1.
          5    1    4    4  501    0 -0.39651945569E+03 -0.39640746288E+03  0.27461920291E+03  0.62434313641E+03  0.47000000000E+01 0. -1.
         -5    1    4    4    0  501 -0.73748404744E+01 -0.38912513969E+01  0.32590695159E+02  0.33967241872E+02  0.47000000000E+01 0. -1.
          1    1    1    2  502    0  0.36969930228E+02  0.56643081870E+02 -0.44198132018E+03  0.44712716519E+03  0.00000000000E+00 0. -1.
          1    1    1    2  503    0 -0.13857070078E+02  0.55824718906E+02  0.93151517523E+03  0.93328931169E+03  0.00000000000E+00 0. -1.
<mgrwt>
<rscale>  0 0.62424120E+02</rscale>
<asrwt>0</asrwt>
<pdfrwt beam="1">  1        2 0.27527097E+00 0.57518846E+02</pdfrwt>
<pdfrwt beam="2">  1        2 0.19224982E+00 0.67747721E+02</pdfrwt>
<totfact> 0.35747323E+01</totfact>
</mgrwt>
</event>
<event>
13    1  0.2101801E-008  0.2008543E+03  0.7546771E-02  0.1289396E+00
          2   -1    0    0  503    0  0.00000000000E+00  0.00000000000E+00  0.20675522391E+04  0.20675522391E+04  0.00000000000E+00 0. -1.
          2   -1    0    0  502    0 -0.00000000000E+00 -0.00000000000E+00 -0.22425731734E+04  0.22425731734E+04  0.00000000000E+00 0. -1.
         24    2    1    2    0    0 -0.12588687783E+03 -0.25597429593E+02 -0.27862817452E+03  0.31203508456E+03  0.56828689478E+02 0.  0.
         25    2    1    2    0    0  0.24031641657E+03 -0.17348475127E+03  0.58818454491E+03  0.67040096902E+03  0.12500984519E+03 0.  0.
         24    2    1    2    0    0 -0.36048288183E+02 -0.21977760376E+02  0.16709578480E+03  0.18852903003E+03  0.76417882957E+02 0.  0.
        -11    1    3    3    0    0 -0.12357373424E+03 -0.12503610464E+02 -0.26656806325E+03  0.29408390029E+03  0.00000000000E+00 0.  1.
         12    1    3    3    0    0 -0.23131435951E+01 -0.13093819129E+02 -0.12060111271E+02  0.17951184265E+02  0.00000000000E+00 0. -1.
        -13    1    5    5    0    0 -0.16070822851E+02  0.28373636277E+02  0.73056995196E+02  0.80004119455E+02  0.00000000000E+00 0.  1.
         14    1    5    5    0    0 -0.19977465333E+02 -0.50351396653E+02  0.94038789602E+02  0.10852491058E+03  0.00000000000E+00 0. -1.
          5    1    4    4  501    0  0.15189059496E+03 -0.17642157469E+03  0.43724694716E+03  0.49538097224E+03  0.47000000000E+01 0. -1.
         -5    1    4    4    0  501  0.88425821608E+02  0.29368234197E+01  0.15093759776E+03  0.17501999679E+03  0.47000000000E+01 0.  1.
          1    1    1    2  502    0 -0.11197095903E+03  0.19008996416E+03 -0.18885738657E+04  0.19014160345E+04  0.00000000000E+00 0. -1.
          1    1    1    2  503    0  0.33589708484E+02  0.30969977087E+02  0.12369007762E+04  0.12377442944E+04  0.00000000000E+00 0. -1.
<mgrwt>
<rscale>  0 0.95794915E+02</rscale>
<asrwt>0</asrwt>
<pdfrwt beam="1">  1        2 0.30405180E+00 0.45688160E+02</pdfrwt>
<pdfrwt beam="2">  1        2 0.32979017E+00 0.20085435E+03</pdfrwt>
<totfact> 0.93554180E+00</totfact>
</mgrwt>
</event>
<event>
13    1  0.2101801E-008  0.1666299E+03  0.7546771E-02  0.1189459E+00
          2   -1    0    0  502    0  0.00000000000E+00  0.00000000000E+00  0.18776262830E+04  0.18776262830E+04  0.00000000000E+00 0. -1.
          2   -1    0    0  503    0 -0.00000000000E+00 -0.00000000000E+00 -0.40473373768E+03  0.40473373768E+03  0.00000000000E+00 0. -1.
         24    2    1    2    0    0 -0.56171537593E+02  0.15725734794E+03  0.12149628705E+03  0.22190771512E+03  0.81219278183E+02 0.  0.
         25    2    1    2    0    0  0.47564899898E+02 -0.11827744177E+03  0.24881464200E+03  0.30625447412E+03  0.12502441325E+03 0.  0.
         24    2    1    2    0    0 -0.21922666296E+01  0.14530358069E+03  0.57071166187E+02  0.17578519568E+03  0.80779826791E+02 0.  0.
        -13    1    5    5    0    0  0.27454047541E+02  0.45819233205E+02  0.47599874070E+02  0.71546312759E+02  0.00000000000E+00 0.  1.
         14    1    5    5    0    0 -0.29646314171E+02  0.99484347485E+02  0.94712921164E+01  0.10423888292E+03  0.00000000000E+00 0. -1.
        -13    1    3    3    0    0 -0.74448369532E+01  0.96930619164E+02  0.10409566749E+03  0.14243201367E+03  0.00000000000E+00 0.  1.
         14    1    3    3    0    0 -0.48726700640E+02  0.60326728777E+02  0.17400619556E+02  0.79475701450E+02  0.00000000000E+00 0. -1.
          5    1    4    4  501    0  0.72617082371E+02 -0.48399090876E+02  0.19725951185E+03  0.21575244533E+03  0.47000000000E+01 0.  1.
         -5    1    4    4    0  501 -0.25052182473E+02 -0.69878350890E+02  0.51555130151E+02  0.90502028788E+02  0.47000000000E+01 0.  1.
          1    1    1    2  502    0  0.13870133346E+03 -0.63010728848E+02  0.12777852443E+04  0.12868346989E+04  0.00000000000E+00 0. -1.
          1    1    1    2  503    0 -0.12790242913E+03 -0.12127275802E+03 -0.23227479421E+03  0.29157793682E+03  0.00000000000E+00 0. -1.
<mgrwt>
<rscale>  0 0.15932642E+03</rscale>
<asrwt>0</asrwt>
<pdfrwt beam="1">  1        2 0.27612151E+00 0.15234307E+03</pdfrwt>
<pdfrwt beam="2">  1        2 0.59519668E-01 0.16662988E+03</pdfrwt>
<totfact> 0.12992614E+02</totfact>
</mgrwt>
</event>
<event>
13    1  0.2101801E-008  0.1774862E+03  0.7546771E-02  0.1305803E+00
          2   -1    0    0  503    0  0.00000000000E+00  0.00000000000E+00  0.15372740867E+04  0.15372740867E+04  0.00000000000E+00 0. -1.
          2   -1    0    0  502    0 -0.00000000000E+00 -0.00000000000E+00 -0.20356790356E+04  0.20356790356E+04  0.00000000000E+00 0. -1.
         24    2    1    2    0    0 -0.99034650518E+02 -0.20808578555E+03 -0.17536167419E+03  0.30033562209E+03  0.79638012107E+02 0.  0.
         25    2    1    2    0    0  0.14024499374E+03 -0.10930997228E+03  0.94636188294E+03  0.97100142774E+03  0.12500252347E+03 0.  0.
         24    2    1    2    0    0 -0.41553737388E+02  0.10327447759E+03  0.84224736838E+02  0.16096818362E+03  0.80153721241E+02 0.  0.
        -11    1    5    5    0    0  0.52101732170E+01  0.47873738714E+01  0.44301356220E+02  0.44862846727E+02  0.00000000000E+00 0.  1.
         12    1    5    5    0    0 -0.46763910605E+02  0.98487103720E+02  0.39923380618E+02  0.11610533689E+03  0.00000000000E+00 0. -1.
        -11    1    3    3    0    0 -0.11051551973E+03 -0.20323425199E+03 -0.16723424284E+03  0.28545600932E+03  0.00000000000E+00 0.  1.
         12    1    3    3    0    0  0.11480869213E+02 -0.48515335666E+01 -0.81274313538E+01  0.14879612772E+02  0.00000000000E+00 0. -1.
          5    1    4    4  501    0  0.23976729261E+02 -0.76569499836E+01  0.45942994106E+03  0.46014288343E+03  0.47000000000E+01 0.  1.
         -5    1    4    4    0  501  0.11626826447E+03 -0.10165302230E+03  0.48693194188E+03  0.51085854431E+03  0.47000000000E+01 0.  1.
          1    1    1    2  502    0 -0.20402051713E+02  0.17484262133E+03 -0.17414339444E+04  0.17503080782E+04  0.00000000000E+00 0. -1.
          1    1    1    2  503    0  0.20745445883E+02  0.39278658911E+02  0.38780404999E+03  0.39033981063E+03  0.00000000000E+00 0. -1.
<mgrwt>
<rscale>  0 0.88792100E+02</rscale>
<asrwt>0</asrwt>
<pdfrwt beam="1">  1        2 0.22606972E+00 0.44420565E+02</pdfrwt>
<pdfrwt beam="2">  1        2 0.29936456E+00 0.17748620E+03</pdfrwt>
<totfact> 0.21231275E+01</totfact>
</mgrwt>
</event>
<event>
13    1  0.2101801E-008  0.4814060E+02  0.7546771E-02  0.1462797E+00
          2   -1    0    0  502    0  0.00000000000E+00  0.00000000000E+00  0.41408351428E+03  0.41408351428E+03  0.00000000000E+00 0. -1.
          2   -1    0    0  503    0 -0.00000000000E+00 -0.00000000000E+00 -0.13670932734E+04  0.13670932734E+04  0.00000000000E+00 0. -1.
         24    2    1    2    0    0  0.63097647587E+02 -0.22106662829E+03 -0.24339776164E+03  0.34461644699E+03  0.81647154831E+02 0.  0.
         25    2    1    2    0    0 -0.91019160286E+02  0.18868570482E+03 -0.53357387391E+03  0.58669066193E+03  0.12497228148E+03 0.  0.
         24    2    1    2    0    0  0.91026257786E+02  0.97682507764E+02 -0.18270672434E+03  0.24015981503E+03  0.80419759412E+02 0.  0.
        -11    1    3    3    0    0  0.81987889656E+02 -0.19660183412E+03 -0.21040367951E+03  0.29940608474E+03  0.00000000000E+00 0.  1.
         12    1    3    3    0    0 -0.18890242069E+02 -0.24464794174E+02 -0.32994082125E+02  0.45210362249E+02  0.00000000000E+00 0. -1.
        -11    1    5    5    0    0  0.84243710007E+02  0.93503039148E+02 -0.19095009576E+03  0.22869578063E+03  0.00000000000E+00 0.  1.
         12    1    5    5    0    0  0.67825477789E+01  0.41794686164E+01  0.82433714203E+01  0.11464034397E+02  0.00000000000E+00 0. -1.
          5    1    4    4  501    0 -0.79606592015E+02  0.95428432552E+02 -0.42602833399E+03  0.44380854723E+03  0.47000000000E+01 0.  1.
         -5    1    4    4    0  501 -0.11412568271E+02  0.93257272270E+02 -0.10754553992E+03  0.14288211471E+03  0.47000000000E+01 0.  1.
          1    1    1    2  502    0 -0.24005079424E+02 -0.41647002899E+02  0.30456175860E+03  0.30833193395E+03  0.00000000000E+00 0. -1.
          1    1    1    2  503    0 -0.39099665663E+02 -0.23654581394E+02 -0.29789315788E+03  0.30137792983E+03  0.00000000000E+00 0. -1.
<mgrwt>
<rscale>  0 0.46903493E+02</rscale>
<asrwt>0</asrwt>
<pdfrwt beam="1">  1        2 0.60894634E-01 0.48140603E+02</pdfrwt>
<pdfrwt beam="2">  1        2 0.20104313E+00 0.45698174E+02</pdfrwt>
<totfact> 0.24955646E+02</totfact>
</mgrwt>
</event>
<event>
13    1  0.2101801E-008  0.1167352E+03  0.7546771E-02  0.1249573E+00
          2   -1    0    0  503    0  0.00000000000E+00  0.00000000000E+00  0.21746139019E+04  0.21746139019E+04  0.00000000000E+00 0. -1.
          2   -1    0    0  502    0 -0.00000000000E+00 -0.00000000000E+00 -0.13035765157E+04  0.13035765157E+04  0.00000000000E+00 0. -1.
         24    2    1    2    0    0  0.78654954897E+02 -0.80191290612E+02 -0.65063110055E+02  0.15441504032E+03  0.83627455820E+02 0.  0.
         25    2    1    2    0    0  0.23136652503E+02  0.69179050793E+02  0.18662418128E+03  0.23616580709E+03  0.12499863057E+03 0.  0.
         24    2    1    2    0    0 -0.71547419067E+01  0.92813373749E+00 -0.61368026791E+02  0.10144953536E+03  0.80460684487E+02 0.  0.
        -11    1    3    3    0    0  0.80438933574E+02 -0.26773066354E+02 -0.27645520330E+02  0.89171149543E+02  0.00000000000E+00 0.  1.
         12    1    3    3    0    0 -0.17839786769E+01 -0.53418224258E+02 -0.37417589724E+02  0.65243890776E+02  0.00000000000E+00 0. -1.
        -13    1    5    5    0    0 -0.40444603005E+02 -0.15205747585E+00 -0.53776102556E+02  0.67287875875E+02  0.00000000000E+00 0.  1.
         14    1    5    5    0    0  0.33289861099E+02  0.10801912133E+01 -0.75919242356E+01  0.34161659483E+02  0.00000000000E+00 0. -1.
          5    1    4    4  501    0 -0.50197798747E+02  0.39625325206E+02  0.99953869097E+02  0.11875542659E+03  0.47000000000E+01 0.  1.
         -5    1    4    4    0  501  0.73334451250E+02  0.29553725588E+02  0.86670312184E+02  0.11741038051E+03  0.47000000000E+01 0.  1.
          1    1    1    2  502    0 -0.16636774501E+03  0.10072609189E+03 -0.10771822321E+04  0.10945983434E+04  0.00000000000E+00 0. -1.
          1    1    1    2  503    0  0.71730879515E+02 -0.90641985805E+02  0.18880265739E+04  0.18915616914E+04  0.00000000000E+00 0. -1.
<mgrwt>
<rscale>  0 0.11615797E+03</rscale>
<asrwt>0</asrwt>
<pdfrwt beam="1">  1        2 0.31979616E+00 0.11558357E+03</pdfrwt>
<pdfrwt beam="2">  1        2 0.19170243E+00 0.11673522E+03</pdfrwt>
<totfact> 0.23027271E+01</totfact>
</mgrwt>
</event>
<event>
13    1  0.2101801E-008  0.1161090E+03  0.7546771E-02  0.1374570E+00
          2   -1    0    0  502    0  0.00000000000E+00  0.00000000000E+00  0.84641053418E+03  0.84641053418E+03  0.00000000000E+00 0. -1.
          2   -1    0    0  503    0 -0.00000000000E+00 -0.00000000000E+00 -0.70144303081E+03  0.70144303081E+03  0.00000000000E+00 0. -1.
         24    2    1    2    0    0  0.10416730224E+03  0.32701383129E+02 -0.21543611548E+03  0.25469516129E+03  0.80849848603E+02 0.  0.
         25    2    1    2    0    0 -0.71270121206E+02 -0.19027241276E+03  0.24854961031E+03  0.34450663320E+03  0.12499956118E+03 0.  0.
         24    2    1    2    0    0 -0.88237355291E+02  0.84768647600E+02 -0.94721544542E+02  0.17493008850E+03  0.81589278563E+02 0.  0.
        -11    1    3    3    0    0  0.10447116785E+03  0.44990373599E+02 -0.21395698872E+03  0.24231374631E+03  0.00000000000E+00 0.  1.
         12    1    3    3    0    0 -0.30386561589E+00 -0.12288990470E+02 -0.14791267656E+01  0.12381414987E+02  0.00000000000E+00 0. -1.
        -13    1    5    5    0    0 -0.79157987728E+01  0.47394574869E+02 -0.41415504024E+01  0.48229223890E+02  0.00000000000E+00 0.  1.
         14    1    5    5    0    0 -0.80321556518E+02  0.37374072731E+02 -0.90579994139E+02  0.12670086461E+03  0.00000000000E+00 0. -1.
          5    1    4    4  501    0  0.27424690805E+02 -0.28675954629E+02  0.86316015548E+02  0.95115553826E+02  0.47000000000E+01 0.  1.
         -5    1    4    4    0  501 -0.98694812012E+02 -0.16159645814E+03  0.16223359476E+03  0.24939107937E+03  0.47000000000E+01 0.  1.
          1    1    1    2  502    0  0.11329335835E+02 -0.35661294048E+02  0.47730596353E+03  0.47877036726E+03  0.00000000000E+00 0. -1.
          1    1    1    2  503    0  0.44010838427E+02  0.10846367608E+03 -0.27073041045E+03  0.29495131474E+03  0.00000000000E+00 0. -1.
<mgrwt>
<rscale>  0 0.65913030E+02</rscale>
<asrwt>0</asrwt>
<pdfrwt beam="1">  1        2 0.12447214E+00 0.37417666E+02</pdfrwt>
<pdfrwt beam="2">  1        2 0.10315339E+00 0.11610899E+03</pdfrwt>
<totfact> 0.26599766E+02</totfact>
</mgrwt>
</event>
<event>
13    1  0.2101801E-008  0.1943845E+03  0.7546771E-02  0.1260719E+00
          2   -1    0    0  503    0  0.00000000000E+00  0.00000000000E+00  0.20009719941E+04  0.20009719941E+04  0.00000000000E+00 0. -1.
          2   -1    0    0  502    0 -0.00000000000E+00 -0.00000000000E+00 -0.12522584833E+04  0.12522584833E+04  0.00000000000E+00 0. -1.
         24    2    1    2    0    0 -0.58555517485E+02  0.86945850721E+02 -0.95804634182E+03  0.96704521596E+03  0.79594767680E+02 0.  0.
         25    2    1    2    0    0 -0.24097198931E+03 -0.83847716071E+02  0.59457982480E+03  0.65897611158E+03  0.12500563367E+03 0.  0.
         24    2    1    2    0    0 -0.86131218808E+02  0.16457168375E+01  0.86725314626E+02  0.14646264266E+03  0.80676702086E+02 0.  0.
        -11    1    5    5    0    0 -0.96667686894E+02 -0.22053083905E+01  0.51621085933E+02  0.10960949588E+03  0.00000000000E+00 0.  1.
         12    1    5    5    0    0  0.10536468085E+02  0.38510252281E+01  0.35104228693E+02  0.36853146775E+02  0.00000000000E+00 0. -1.
        -13    1    3    3    0    0 -0.68820929611E+02  0.95539165862E+02 -0.83212499718E+03  0.84041422138E+03  0.00000000000E+00 0.  1.
         14    1    3    3    0    0  0.10265412125E+02 -0.85933151407E+01 -0.12592134465E+03  0.12663099458E+03  0.00000000000E+00 0. -1.
          5    1    4    4  501    0 -0.20874551506E+03 -0.78654880119E+02  0.58264208962E+03  0.62390317744E+03  0.47000000000E+01 0. -1.
         -5    1    4    4    0  501 -0.32226474251E+02 -0.51928359516E+01  0.11937735183E+02  0.35072934140E+02  0.47000000000E+01 0. -1.
          1    1    1    2  502    0  0.33664464519E+03 -0.42967702694E+02 -0.99824130157E+02  0.35375231105E+03  0.00000000000E+00 0. -1.
          1    1    1    2  503    0  0.49014080416E+02  0.38223851206E+02  0.11252788433E+04  0.11269941961E+04  0.00000000000E+00 0. -1.
<mgrwt>
<rscale>  0 0.10991942E+03</rscale>
<asrwt>0</asrwt>
<pdfrwt beam="1">  1        2 0.29426059E+00 0.62156600E+02</pdfrwt>
<pdfrwt beam="2">  1        2 0.18415566E+00 0.19438448E+03</pdfrwt>
<totfact> 0.30789225E+01</totfact>
</mgrwt>
</event>
<event>
13    1  0.2101801E-008  0.2780786E+03  0.7546771E-02  0.1213113E+00
          2   -1    0    0  503    0  0.00000000000E+00  0.00000000000E+00  0.20899656443E+04  0.20899656443E+04  0.00000000000E+00 0. -1.
          2   -1    0    0  502    0 -0.00000000000E+00 -0.00000000000E+00 -0.78760448306E+03  0.78760448306E+03  0.00000000000E+00 0. -1.
         24    2    1    2    0    0 -0.24066369653E+03  0.16383868337E+03 -0.15910990801E+03  0.34165410755E+03  0.81544082448E+02 0.  0.
         25    2    1    2    0    0 -0.12837928279E+03 -0.15449119700E+03  0.18830395464E+03  0.30237514629E+03  0.12499431810E+03 0.  0.
         24    2    1    2    0    0  0.38334774405E+02  0.64648652781E+01  0.76507929124E+03  0.77404002619E+03  0.11081647369E+03 0.  0.
        -11    1    5    5    0    0  0.42933705909E+02 -0.26747825633E+02  0.68954927201E+03  0.69140216069E+03  0.00000000000E+00 0.  1.
         12    1    5    5    0    0 -0.45989315040E+01  0.33212690912E+02  0.75530019234E+02  0.82637865498E+02  0.00000000000E+00 0. -1.
        -13    1    3    3    0    0 -0.24041893358E+02  0.23251184546E+02  0.75688872541E+01  0.34291664778E+02  0.00000000000E+00 0.  1.
         14    1    3    3    0    0 -0.21662180317E+03  0.14058749883E+03 -0.16667879527E+03  0.30736244277E+03  0.00000000000E+00 0. -1.
          5    1    4    4  501    0 -0.14647591174E+03 -0.10813893865E+03  0.12147591990E+03  0.21892398655E+03  0.47000000000E+01 0.  1.
         -5    1    4    4    0  501  0.18096628953E+02 -0.46352258355E+02  0.66828034738E+02  0.83451159734E+02  0.47000000000E+01 0.  1.
          1    1    1    2  502    0  0.29558083768E+03  0.45480721061E+02 -0.42724051641E+03  0.52150837621E+03  0.00000000000E+00 0. -1.
          1    1    1    2  503    0  0.35127367233E+02 -0.61293072706E+02  0.93532833981E+03  0.93799247115E+03  0.00000000000E+00 0. -1.
<mgrwt>
<rscale>  0 0.14016053E+03</rscale>
<asrwt>0</asrwt>
<pdfrwt beam="1">  1        2 0.30734789E+00 0.70645401E+02</pdfrwt>
<pdfrwt beam="2">  1        2 0.11582419E+00 0.27807859E+03</pdfrwt>
<totfact> 0.51423030E+01</totfact>
</mgrwt>
</event>
<event>
13    1  0.2101801E-008  0.1228594E+03  0.7546771E-02  0.1425257E+00
          2   -1    0    0  503    0  0.00000000000E+00  0.00000000000E+00  0.35124754682E+04  0.35124754682E+04  0.00000000000E+00 0. -1.
          2   -1    0    0  502    0 -0.00000000000E+00 -0.00000000000E+00 -0.19981454495E+04  0.19981454495E+04  0.00000000000E+00 0. -1.
         24    2    1    2    0    0  0.16783015219E+03  0.18898393656E+03 -0.59261789368E+03  0.64947293213E+03  0.82080651800E+02 0.  0.
         25    2    1    2    0    0  0.52389205089E+02 -0.87066115162E+02  0.18163251371E+04  0.18234541817E+04  0.12499204622E+03 0.  0.
         24    2    1    2    0    0 -0.87517502709E+02 -0.82547322236E+02 -0.40996727516E+03  0.43481971744E+03  0.80756710479E+02 0.  0.
        -11    1    3    3    0    0  0.71173768482E+02  0.87337252928E+02 -0.16794375475E+03  0.20223403726E+03  0.00000000000E+00 0.  1.
         12    1    3    3    0    0  0.96656383709E+02  0.10164668363E+03 -0.42467413893E+03  0.44723889487E+03  0.00000000000E+00 0. -1.
        -13    1    5    5    0    0 -0.98160163186E+01  0.15478113666E+02 -0.76472031751E+02  0.78637763315E+02  0.00000000000E+00 0.  1.
         14    1    5    5    0    0 -0.77701486390E+02 -0.98025435902E+02 -0.33349524341E+03  0.35618195413E+03  0.00000000000E+00 0. -1.
          5    1    4    4  501    0  0.86409400970E+02 -0.39198239889E+02  0.84041638881E+03  0.84576881189E+03  0.47000000000E+01 0.  1.
         -5    1    4    4    0  501 -0.34020195880E+02 -0.47867875273E+02  0.97590874833E+03  0.97768536978E+03  0.47000000000E+01 0.  1.
          1    1    1    2  502    0 -0.11708528482E+03 -0.37154911187E+02 -0.94709053491E+03  0.95502352466E+03  0.00000000000E+00 0. -1.
          1    1    1    2  503    0 -0.15616569751E+02  0.17784412028E+02  0.16476805853E+04  0.16478505618E+04  0.00000000000E+00 0. -1.
<mgrwt>
<rscale>  0 0.53924067E+02</rscale>
<asrwt>0</asrwt>
<pdfrwt beam="1">  1        2 0.51654051E+00 0.23667754E+02</pdfrwt>
<pdfrwt beam="2">  1        2 0.29384492E+00 0.12285936E+03</pdfrwt>
<totfact> 0.27942364E+00</totfact>
</mgrwt>
</event>
<event>
13    1  0.2101801E-008  0.7132222E+02  0.7546771E-02  0.1460679E+00
          2   -1    0    0  502    0  0.00000000000E+00  0.00000000000E+00  0.16506253076E+04  0.16506253076E+04  0.00000000000E+00 0. -1.
          2   -1    0    0  503    0 -0.00000000000E+00 -0.00000000000E+00 -0.22821520251E+04  0.22821520251E+04  0.00000000000E+00 0. -1.
         24    2    1    2    0    0 -0.54802506825E+02  0.15648407457E+03 -0.65746262593E+03  0.68273954111E+03  0.79909925232E+02 0.  0.
         25    2    1    2    0    0 -0.21335452035E+02 -0.48391709013E+02  0.11551724754E+04  0.11631186611E+04  0.12499845126E+03 0.  0.
         24    2    1    2    0    0  0.23243508053E+02 -0.15025944482E+03 -0.84855252706E+02  0.19522459320E+03  0.88284010175E+02 0.  0.
        -11    1    3    3    0    0 -0.51708912907E+02  0.60181505092E+02 -0.19847004840E+03  0.21374280184E+03  0.00000000000E+00 0.  1.
         12    1    3    3    0    0 -0.30935939185E+01  0.96302569477E+02 -0.45899257753E+03  0.46899673927E+03  0.00000000000E+00 0. -1.
        -13    1    5    5    0    0 -0.11091678558E+02 -0.52808383004E+02 -0.73641137477E+02  0.91294949355E+02  0.00000000000E+00 0.  1.
         14    1    5    5    0    0  0.34335186611E+02 -0.97451061817E+02 -0.11214115229E+02  0.10392964384E+03  0.00000000000E+00 0. -1.
          5    1    4    4  501    0  0.45040968397E+02 -0.50723786316E+02  0.65892957470E+03  0.66242876278E+03  0.47000000000E+01 0.  1.
         -5    1    4    4    0  501 -0.66376420432E+02  0.23320773031E+01  0.49624290072E+03  0.50068989833E+03  0.47000000000E+01 0.  1.
          1    1    1    2  502    0  0.30802170983E+02  0.64370653848E+02  0.42048300818E+03  0.42649538682E+03  0.00000000000E+00 0. -1.
          1    1    1    2  503    0  0.22092279823E+02 -0.22203574582E+02 -0.14648643225E+04  0.14651991506E+04  0.00000000000E+00 0. -1.
<mgrwt>
<rscale>  0 0.47264726E+02</rscale>
<asrwt>0</asrwt>
<pdfrwt beam="1">  1        2 0.24273901E+00 0.71322217E+02</pdfrwt>
<pdfrwt beam="2">  1        2 0.33561059E+00 0.31321998E+02</pdfrwt>
<totfact> 0.16809941E+01</totfact>
</mgrwt>
</event>
<event>
13    1  0.2101801E-008  0.3452278E+03  0.7546771E-02  0.1216045E+00
          2   -1    0    0  502    0  0.00000000000E+00  0.00000000000E+00  0.17938769674E+04  0.17938769674E+04  0.00000000000E+00 0. -1.
          2   -1    0    0  503    0 -0.00000000000E+00 -0.00000000000E+00 -0.18407567788E+04  0.18407567788E+04  0.00000000000E+00 0. -1.
         24    2    1    2    0    0  0.73935579582E+02 -0.44362312013E+02 -0.47522294385E+01  0.11586028742E+03  0.77243367756E+02 0.  0.
         25    2    1    2    0    0  0.17421988774E+03  0.12081382275E+03  0.12021253268E+04  0.12270615024E+04  0.12500432165E+03 0.  0.
         24    2    1    2    0    0  0.43646034620E+02  0.65332210182E+02  0.99427551877E+01  0.11242494049E+03  0.79794954967E+02 0.  0.
        -13    1    3    3    0    0  0.58630431809E+02  0.98295035060E+01 -0.28179876949E+01  0.59515441088E+02  0.00000000000E+00 0.  1.
         14    1    3    3    0    0  0.15305147773E+02 -0.54191815519E+02 -0.19342417436E+01  0.56344846336E+02  0.00000000000E+00 0. -1.
        -13    1    5    5    0    0 -0.12993487391E+02 -0.10878259608E+02  0.30858818426E+01  0.17224689066E+02  0.00000000000E+00 0.  1.
         14    1    5    5    0    0  0.56639522011E+02  0.76210469789E+02  0.68568733452E+01  0.95200251424E+02  0.00000000000E+00 0. -1.
          5    1    4    4  501    0  0.71702156819E+02  0.20264330843E+02  0.17971684377E+03  0.19460749300E+03  0.47000000000E+01 0. -1.
         -5    1    4    4    0  501  0.10251773092E+03  0.10054949191E+03  0.10224084830E+04  0.10324540094E+04  0.47000000000E+01 0. -1.
          1    1    1    2  502    0 -0.57161854122E+01  0.54867095178E+02  0.44326834307E+03  0.44668769501E+03  0.00000000000E+00 0. -1.
          1    1    1    2  503    0 -0.28608531653E+03 -0.19665081610E+03 -0.16974640069E+04  0.17325993208E+04  0.00000000000E+00 0. -1.
<mgrwt>
<rscale>  0 0.13800060E+03</rscale>
<asrwt>0</asrwt>
<pdfrwt beam="1">  1        2 0.26380544E+00 0.55164055E+02</pdfrwt>
<pdfrwt beam="2">  1        2 0.27069953E+00 0.34522780E+03</pdfrwt>
<totfact> 0.18573717E+01</totfact>
</mgrwt>
</event>
<event>
13    1  0.2101801E-008  0.9800878E+02  0.7546771E-02  0.1371621E+00
          2   -1    0    0  503    0  0.00000000000E+00  0.00000000000E+00  0.21913992512E+04  0.21913992512E+04  0.00000000000E+00 0. -1.
          2   -1    0    0  502    0 -0.00000000000E+00 -0.00000000000E+00 -0.13123817245E+04  0.13123817245E+04  0.00000000000E+00 0. -1.
         24    2    1    2    0    0 -0.59877998263E+01  0.15743425668E+02 -0.84705693694E+03  0.85115238083E+03  0.81677486363E+02 0.  0.
         25    2    1    2    0    0  0.11167612327E+03  0.10207199537E+03 -0.65886603333E+02  0.20701787077E+03  0.12500042230E+03 0.  0.
         24    2    1    2    0    0  0.25592254583E+01 -0.19074967538E+02  0.57790051353E+02  0.10280321543E+03  0.82815500028E+02 0.  0.
        -11    1    5    5    0    0 -0.29677308952E+01 -0.51694137656E+02  0.38302524354E+02  0.64406324740E+02  0.00000000000E+00 0.  1.
         12    1    5    5    0    0  0.55269563535E+01  0.32619170118E+02  0.19487526998E+02  0.38396890685E+02  0.00000000000E+00 0. -1.
        -11    1    3    3    0    0  0.36619506432E+00 -0.28592024250E+02 -0.54950511702E+03  0.55024859071E+03  0.00000000000E+00 0.  1.
         12    1    3    3    0    0 -0.63539948907E+01  0.44335449918E+02 -0.29755181992E+03  0.30090379012E+03  0.00000000000E+00 0. -1.
          5    1    4    4  501    0  0.23255791514E+02  0.38890580363E+00  0.32403361379E+02  0.40162805123E+02  0.47000000000E+01 0. -1.
         -5    1    4    4    0  501  0.88420331751E+02  0.10168308957E+03 -0.98289964712E+02  0.16685506565E+03  0.47000000000E+01 0. -1.
          1    1    1    2  502    0 -0.62868403347E+02 -0.96859116704E+02 -0.29310063764E+03  0.31502715504E+03  0.00000000000E+00 0. -1.
          1    1    1    2  503    0 -0.45379145551E+02 -0.18813367964E+01  0.20272716532E+04  0.20277803536E+04  0.00000000000E+00 0. -1.
<mgrwt>
<rscale>  0 0.66718628E+02</rscale>
<asrwt>0</asrwt>
<pdfrwt beam="1">  1        2 0.32226460E+00 0.45418127E+02</pdfrwt>
<pdfrwt beam="2">  1        2 0.19299731E+00 0.98008780E+02</pdfrwt>
<totfact> 0.25265845E+01</totfact>
</mgrwt>
</event>
<event>
13    1  0.2101801E-008  0.8208657E+02  0.7546771E-02  0.1405125E+00
          4   -1    0    0  503    0 -0.00000000000E+00  0.00000000000E+00  0.30040395067E+03  0.30040395067E+03  0.00000000000E+00 0. -1.
          2   -1    0    0  502    0  0.00000000000E+00 -0.00000000000E+00 -0.34242270464E+04  0.34242270464E+04  0.00000000000E+00 0. -1.
         24    2    1    2    0    0  0.23086474153E+02  0.76452908379E+02  0.19225458769E+03  0.21980730611E+03  0.70536464627E+02 0.  0.
         25    2    1    2    0    0 -0.45166476081E+02 -0.68018426864E+02 -0.47340948718E+03  0.49639712178E+03  0.12500817174E+03 0.  0.
         24    2    1    2    0    0 -0.11390010706E+01  0.26492574856E+02 -0.23577941614E+03  0.25041810764E+03  0.80088336946E+02 0.  0.
        -11    1    5    5    0    0  0.29155721237E+02 -0.12005508933E+02 -0.13116574695E+03  0.13490234059E+03  0.00000000000E+00 0.  1.
         12    1    5    5    0    0 -0.30294722308E+02  0.38498083789E+02 -0.10461366919E+03  0.11551576705E+03  0.00000000000E+00 0. -1.
        -13    1    3    3    0    0 -0.21699999576E+02  0.42018903650E+02  0.11283346442E+03  0.12234324231E+03  0.00000000000E+00 0.  1.
         14    1    3    3    0    0  0.44786473729E+02  0.34434004729E+02  0.79421123269E+02  0.97464063798E+02  0.00000000000E+00 0. -1.
          5    1    4    4  501    0  0.77457782737E+01 -0.46240467982E+02 -0.48477293744E+02  0.67604112071E+02  0.47000000000E+01 0. -1.
         -5    1    4    4    0  501 -0.52912254354E+02 -0.21777958883E+02 -0.42493219344E+03  0.42879300971E+03  0.47000000000E+01 0. -1.
          1    1    1    2  502    0  0.33680616857E+02 -0.74983961899E+02 -0.26760987664E+04  0.26773609368E+04  0.00000000000E+00 0. -1.
          3    1    1    2  503    0 -0.10461613858E+02  0.40056905529E+02  0.69209986279E+02  0.80647524734E+02  0.00000000000E+00 0. -1.
<mgrwt>
<rscale>  0 0.58296011E+02</rscale>
<asrwt>0</asrwt>
<pdfrwt beam="2">  1        2 0.50356283E+00 0.82086575E+02</pdfrwt>
<pdfrwt beam="1">  1        4 0.44177049E-01 0.41400496E+02</pdfrwt>
<totfact> 0.39772727E+00</totfact>
</mgrwt>
</event>
<event>
13    1  0.2101801E-008  0.1074606E+03  0.7546771E-02  0.1354440E+00
          2   -1    0    0  503    0  0.00000000000E+00  0.00000000000E+00  0.39394236692E+04  0.39394236692E+04  0.00000000000E+00 0. -1.
          2   -1    0    0  502    0 -0.00000000000E+00 -0.00000000000E+00 -0.23291152358E+03  0.23291152358E+03  0.00000000000E+00 0. -1.
         24    2    1    2    0    0 -0.76187689472E+02 -0.13350228577E+03  0.18648940036E+03  0.25424393948E+03  0.78957330131E+02 0.  0.
         25    2    1    2    0    0  0.22171040568E+03  0.81312687101E+02  0.31830344360E+04  0.31942294270E+04  0.12500461703E+03 0.  0.
         24    2    1    2    0    0 -0.15128654529E+03 -0.87771024880E+01 -0.83393518333E+01  0.17195856406E+03  0.80842727867E+02 0.  0.
        -13    1    3    3    0    0 -0.20737363272E+02  0.16003269001E+01  0.50817795374E+02  0.54909449172E+02  0.00000000000E+00 0.  1.
         14    1    3    3    0    0 -0.55450326200E+02 -0.13510261267E+03  0.13567160499E+03  0.19933449031E+03  0.00000000000E+00 0. -1.
        -13    1    5    5    0    0 -0.87741663436E+02  0.14277606707E+02 -0.39799535671E+02  0.97398421935E+02  0.00000000000E+00 0.  1.
         14    1    5    5    0    0 -0.63544881858E+02 -0.23054709195E+02  0.31460183837E+02  0.74560142124E+02  0.00000000000E+00 0. -1.
          5    1    4    4  501    0  0.10343315998E+03  0.17407385423E+02  0.21374656178E+04  0.21400427082E+04  0.47000000000E+01 0.  1.
         -5    1    4    4    0  501  0.11827724569E+03  0.63905301678E+02  0.10455688182E+04  0.10541867188E+04  0.47000000000E+01 0.  1.
          1    1    1    2  502    0  0.24221931828E+02  0.10508727793E+03 -0.73401062442E+02  0.13045211356E+03  0.00000000000E+00 0. -1.
          1    1    1    2  503    0 -0.18458102741E+02 -0.44120576769E+02  0.41872872351E+03  0.42145114870E+03  0.00000000000E+00 0. -1.
<mgrwt>
<rscale>  0 0.71689685E+02</rscale>
<asrwt>0</asrwt>
<pdfrwt beam="1">  1        2 0.57932697E+00 0.47826006E+02</pdfrwt>
<pdfrwt beam="2">  1        2 0.34251697E-01 0.10746059E+03</pdfrwt>
<totfact> 0.21952021E+01</totfact>
</mgrwt>
</event>
<event>
13    1  0.2101801E-008  0.7177756E+02  0.7546771E-02  0.1398392E+00
          2   -1    0    0  502    0  0.00000000000E+00  0.00000000000E+00  0.15723176146E+04  0.15723176146E+04  0.00000000000E+00 0. -1.
          2   -1    0    0  503    0 -0.00000000000E+00 -0.00000000000E+00 -0.13106684986E+04  0.13106684986E+04  0.00000000000E+00 0. -1.
         24    2    1    2    0    0 -0.17829468177E+02 -0.12395302542E+02 -0.19694318125E+03  0.21396289325E+03  0.80758712153E+02 0.  0.
         25    2    1    2    0    0 -0.20769484763E+02  0.52435451314E+02  0.85152993023E+02  0.16140601870E+03  0.12498008881E+03 0.  0.
         24    2    1    2    0    0 -0.20047364474E+02  0.53838540152E+01  0.30615309531E+02  0.88203268818E+02  0.80072696633E+02 0.  0.
        -13    1    5    5    0    0  0.22095372599E+02  0.14806547481E+02 -0.10482912653E+02  0.28588997819E+02  0.00000000000E+00 0.  1.
         14    1    5    5    0    0 -0.42142737073E+02 -0.94226934656E+01  0.41098222184E+02  0.59614271000E+02  0.00000000000E+00 0. -1.
        -13    1    3    3    0    0  0.26673596086E+02  0.15730208164E+02 -0.70988189440E+02  0.77448326109E+02  0.00000000000E+00 0.  1.
         14    1    3    3    0    0 -0.44503064263E+02 -0.28125510706E+02 -0.12595499181E+03  0.13651456714E+03  0.00000000000E+00 0. -1.
          5    1    4    4  501    0  0.13200439787E+02 -0.15704006102E+02 -0.21626782285E+02  0.30177394358E+02  0.47000000000E+01 0. -1.
         -5    1    4    4    0  501 -0.33969924550E+02  0.68139457416E+02  0.10677977531E+03  0.13122862434E+03  0.47000000000E+01 0. -1.
          1    1    1    2  502    0 -0.13175382015E+02 -0.48162658224E+02  0.13794228769E+04  0.13803263041E+04  0.00000000000E+00 0. -1.
          1    1    1    2  503    0  0.71821699428E+02  0.27386554370E+01 -0.10365988822E+04  0.10390876283E+04  0.00000000000E+00 0. -1.
<mgrwt>
<rscale>  0 0.59866659E+02</rscale>
<asrwt>0</asrwt>
<pdfrwt beam="1">  1        2 0.23122318E+00 0.49932278E+02</pdfrwt>
<pdfrwt beam="2">  1        2 0.19274537E+00 0.71777556E+02</pdfrwt>
<totfact> 0.49693786E+01</totfact>
</mgrwt>
</event>
<event>
13    1  0.2101801E-008  0.6036370E+02  0.7546771E-02  0.1401043E+00
          2   -1    0    0  503    0  0.00000000000E+00  0.00000000000E+00  0.26005429872E+04  0.26005429872E+04  0.00000000000E+00 0. -1.
          2   -1    0    0  502    0 -0.00000000000E+00 -0.00000000000E+00 -0.95650679561E+03  0.95650679561E+03  0.00000000000E+00 0. -1.
         24    2    1    2    0    0 -0.91979317105E+02  0.21402977848E+01 -0.39074051919E+03  0.40943798604E+03  0.80601088249E+02 0.  0.
         25    2    1    2    0    0  0.62014004978E+02 -0.19260291901E+03  0.36139977309E+03  0.43263825710E+03  0.12499777713E+03 0.  0.
         24    2    1    2    0    0  0.67862519974E+02  0.17992262667E+03  0.12054898446E+04  0.12244744619E+04  0.95678990853E+02 0.  0.
        -11    1    5    5    0    0  0.63531884945E+02  0.56559137653E+02  0.64283611707E+03  0.64843928773E+03  0.00000000000E+00 0.  1.
         12    1    5    5    0    0  0.43306350287E+01  0.12336348901E+03  0.56265372751E+03  0.57603517419E+03  0.00000000000E+00 0. -1.
        -13    1    3    3    0    0 -0.59807978616E+02 -0.26262359310E+02 -0.32078611795E+03  0.32736896507E+03  0.00000000000E+00 0.  1.
         14    1    3    3    0    0 -0.32171338488E+02  0.28402657095E+02 -0.69954401247E+02  0.82069020976E+02  0.00000000000E+00 0. -1.
          5    1    4    4  501    0  0.33130965995E+02 -0.11479716024E+03  0.92482033098E+02  0.15116568841E+03  0.47000000000E+01 0. -1.
         -5    1    4    4    0  501  0.28883038983E+02 -0.77805758772E+02  0.26891773999E+03  0.28147256869E+03  0.47000000000E+01 0. -1.
          1    1    1    2  502    0 -0.72908006219E+01  0.59972111632E+02 -0.50865380993E+03  0.51222896082E+03  0.00000000000E+00 0. -1.
          1    1    1    2  503    0 -0.30606407226E+02 -0.49432117067E+02  0.97654090304E+03  0.97827011693E+03  0.00000000000E+00 0. -1.
<mgrwt>
<rscale>  0 0.59241532E+02</rscale>
<asrwt>0</asrwt>
<pdfrwt beam="1">  1        2 0.38243279E+00 0.58140230E+02</pdfrwt>
<pdfrwt beam="2">  1        2 0.14066276E+00 0.60363696E+02</pdfrwt>
<totfact> 0.24908927E+01</totfact>
</mgrwt>
</event>
<event>
13    1  0.2101801E-008  0.2072553E+03  0.7546771E-02  0.1271824E+00
          2   -1    0    0  502    0  0.00000000000E+00  0.00000000000E+00  0.13540004172E+04  0.13540004172E+04  0.00000000000E+00 0. -1.
          2   -1    0    0  503    0 -0.00000000000E+00 -0.00000000000E+00 -0.25354452772E+04  0.25354452772E+04  0.00000000000E+00 0. -1.
         24    2    1    2    0    0  0.11406952976E+03 -0.52351796481E+01 -0.15878686585E+03  0.21185022969E+03  0.81412445788E+02 0.  0.
         25    2    1    2    0    0 -0.71223216530E+02  0.15112457102E+03 -0.12042789485E+03  0.24091190374E+03  0.12499713982E+03 0.  0.
         24    2    1    2    0    0  0.12707222944E+03 -0.40877958059E+02 -0.11386127640E+03  0.19281695424E+03  0.79972674266E+02 0.  0.
        -11    1    5    5    0    0  0.51136731303E+02  0.64374781360E+01 -0.83894184941E+02  0.98461366434E+02  0.00000000000E+00 0.  1.
         12    1    5    5    0    0  0.75935498134E+02 -0.47315436195E+02 -0.29967091454E+02  0.94355587802E+02  0.00000000000E+00 0. -1.
        -13    1    3    3    0    0  0.58000173797E+02  0.20504323296E+02 -0.12989313715E+03  0.14372430035E+03  0.00000000000E+00 0.  1.
         14    1    3    3    0    0  0.56069355959E+02 -0.25739502944E+02 -0.28893728697E+02  0.68125929333E+02  0.00000000000E+00 0. -1.
          5    1    4    4  501    0 -0.30312214857E+01  0.12164046378E+03 -0.11296238204E+03  0.16609690090E+03  0.47000000000E+01 0.  1.
         -5    1    4    4    0  501 -0.68191995044E+02  0.29484107246E+02 -0.74655128092E+01  0.74815002838E+02  0.47000000000E+01 0.  1.
          1    1    1    2  502    0 -0.20313446282E+03 -0.64578416493E+02  0.12181537448E+04  0.12366618486E+04  0.00000000000E+00 0. -1.
          1    1    1    2  503    0  0.33215920160E+02 -0.40433016825E+02 -0.20065225677E+04  0.20072047581E+04  0.00000000000E+00 0. -1.
<mgrwt>
<rscale>  0 0.10413966E+03</rscale>
<asrwt>0</asrwt>
<pdfrwt beam="1">  1        2 0.19911771E+00 0.20725529E+03</pdfrwt>
<pdfrwt beam="2">  1        2 0.37285960E+00 0.52327108E+02</pdfrwt>
<totfact> 0.15417593E+01</totfact>
</mgrwt>
</event>
<event>
13    1  0.2101801E-008  0.9232843E+02  0.7546771E-02  0.1410829E+00
         -3   -1    0    0    0  501 -0.00000000000E+00  0.00000000000E+00  0.80492340344E+03  0.80492340344E+03  0.00000000000E+00 0.  1.
          2   -1    0    0  503    0  0.00000000000E+00 -0.00000000000E+00 -0.27436923227E+04  0.27436923227E+04  0.00000000000E+00 0. -1.
         24    2    1    2    0    0  0.31331998322E+03  0.16075555058E+03  0.38662930713E+03  0.52945567038E+03  0.82639741295E+02 0.  0.
         25    2    1    2    0    0  0.14345096333E+02 -0.13912893243E+03 -0.13655702095E+04  0.13783927786E+04  0.12498805286E+03 0.  0.
         24    2    1    2    0    0 -0.45015054153E+03 -0.54400341290E+02 -0.56858724914E+03  0.73172066478E+03  0.80800768617E+02 0.  0.
        -11    1    3    3    0    0  0.21857582115E+03  0.10853075911E+03  0.31986574020E+03  0.40232873005E+03  0.00000000000E+00 0.  1.
         12    1    3    3    0    0  0.94744162069E+02  0.52224791470E+02  0.66763566921E+02  0.12712694033E+03  0.00000000000E+00 0. -1.
        -11    1    5    5    0    0 -0.29855433619E+03 -0.67944079063E+02 -0.41241022509E+03  0.51364704155E+03  0.00000000000E+00 0.  1.
         12    1    5    5    0    0 -0.15159620534E+03  0.13543737773E+02 -0.15617702406E+03  0.21807362323E+03  0.00000000000E+00 0. -1.
          5    1    4    4  502    0 -0.13498220370E+02 -0.15175356482E+03 -0.12258313948E+04  0.12352716482E+04  0.47000000000E+01 0.  1.
         -5    1    4    4    0  502  0.27843316702E+02  0.12624632381E+02 -0.13973881477E+03  0.14312113045E+03  0.47000000000E+01 0.  1.
          1    1    1    2  503    0  0.32157841782E+02  0.14317165026E+02 -0.64143834253E+03  0.64240349880E+03  0.00000000000E+00 0. -1.
         -4    1    1    2    0  501  0.90327620200E+02  0.18456558114E+02  0.25019757487E+03  0.26664311350E+03  0.00000000000E+00 0.  1.
<mgrwt>
<rscale>  0 0.57009208E+02</rscale>
<asrwt>0</asrwt>
<pdfrwt beam="2">  1        2 0.40348416E+00 0.35200966E+02</pdfrwt>
<pdfrwt beam="1">  1       -3 0.11837109E+00 0.92328428E+02</pdfrwt>
<totfact> 0.17375490E+00</totfact>
</mgrwt>
</event>
<event>
13    1  0.2101801E-008  0.1310144E+03  0.7546771E-02  0.1344048E+00
          2   -1    0    0  503    0  0.00000000000E+00  0.00000000000E+00  0.34454470336E+04  0.34454470336E+04  0.00000000000E+00 0. -1.
          2   -1    0    0  502    0 -0.00000000000E+00 -0.00000000000E+00 -0.13221152857E+04  0.13221152857E+04  0.00000000000E+00 0. -1.
         24    2    1    2    0    0 -0.86669917564E+02  0.25406826385E+02  0.33520144715E+03  0.35618965797E+03  0.79711234039E+02 0.  0.
         25    2    1    2    0    0  0.18975082329E+03 -0.12823672163E+03 -0.29184313930E+03  0.39145576675E+03  0.12496066444E+03 0.  0.
         24    2    1    2    0    0  0.30652909808E+02  0.65773320459E+02 -0.20553539976E+03  0.23267351135E+03  0.81402897768E+02 0.  0.
        -11    1    5    5    0    0  0.43809161054E+02  0.43347873586E+02 -0.64304500863E+02  0.89069352574E+02  0.00000000000E+00 0.  1.
         12    1    5    5    0    0 -0.13156251246E+02  0.22425446873E+02 -0.14123089890E+03  0.14360415877E+03  0.00000000000E+00 0. -1.
        -13    1    3    3    0    0 -0.71751440180E+02  0.12584280734E+02  0.32676271228E+03  0.33478426401E+03  0.00000000000E+00 0.  1.
         14    1    3    3    0    0 -0.14918477384E+02  0.12822545650E+02  0.84387348740E+01  0.21405393962E+02  0.00000000000E+00 0. -1.
          5    1    4    4  501    0  0.15375188482E+03 -0.30751998501E+02 -0.17526473805E+03  0.23521297988E+03  0.47000000000E+01 0.  1.
         -5    1    4    4    0  501  0.35998938464E+02 -0.97484723131E+02 -0.11657840124E+03  0.15624278688E+03  0.47000000000E+01 0.  1.
          1    1    1    2  502    0 -0.14770954206E+03 -0.34702872972E+01 -0.74344581677E+03  0.75798537860E+03  0.00000000000E+00 0. -1.
          1    1    1    2  503    0  0.13975726526E+02  0.40526862085E+02  0.30289546565E+04  0.30292580046E+04  0.00000000000E+00 0. -1.
<mgrwt>
<rscale>  0 0.74942977E+02</rscale>
<asrwt>0</asrwt>
<pdfrwt beam="1">  1        2 0.50668339E+00 0.42868957E+02</pdfrwt>
<pdfrwt beam="2">  1        2 0.19442872E+00 0.13101438E+03</pdfrwt>
<totfact> 0.57736545E+00</totfact>
</mgrwt>
</event>
<event>
13    1  0.2101801E-008  0.1745949E+03  0.7546771E-02  0.1340502E+00
          2   -1    0    0  502    0  0.00000000000E+00  0.00000000000E+00  0.18742027476E+04  0.18742027476E+04  0.00000000000E+00 0. -1.
          2   -1    0    0  503    0 -0.00000000000E+00 -0.00000000000E+00 -0.13500661628E+04  0.13500661628E+04  0.00000000000E+00 0. -1.
         24    2    1    2    0    0  0.13804019120E+03  0.14134337743E+03 -0.11776230618E+03  0.24400836251E+03  0.81480522124E+02 0.  0.
         25    2    1    2    0    0  0.42051886063E+02  0.14971065770E+02  0.10622115140E+04  0.10704719000E+04  0.12499717717E+03 0.  0.
         24    2    1    2    0    0 -0.57814034448E+02 -0.48160521846E+01  0.24806004978E+02  0.10155397059E+03  0.79575210471E+02 0.  0.
        -11    1    3    3    0    0  0.13448267689E+03  0.14155134056E+03 -0.12780030607E+03  0.23335657400E+03  0.00000000000E+00 0.  1.
         12    1    3    3    0    0  0.35575143101E+01 -0.20796312912E+00  0.10037999884E+02  0.10651788508E+02  0.00000000000E+00 0. -1.
        -13    1    5    5    0    0 -0.75553365298E+02 -0.69210496760E+01  0.31939493101E+02  0.82318546854E+02  0.00000000000E+00 0.  1.
         14    1    5    5    0    0  0.17739330850E+02  0.21049974914E+01 -0.71334881233E+01  0.19235423735E+02  0.00000000000E+00 0. -1.
          5    1    4    4  501    0  0.39297529860E+02  0.35362327164E+02  0.17182436445E+03  0.17983462474E+03  0.47000000000E+01 0. -1.
         -5    1    4    4    0  501  0.27543562022E+01 -0.20391261394E+02  0.89038714958E+03  0.89063727530E+03  0.47000000000E+01 0. -1.
          1    1    1    2  502    0  0.27359701743E+01 -0.33055268468E+02  0.67456747240E+03  0.67538241843E+03  0.00000000000E+00 0. -1.
          1    1    1    2  503    0 -0.12501401299E+03 -0.11844312254E+03 -0.11196861004E+04  0.11328522588E+04  0.00000000000E+00 0. -1.
<mgrwt>
<rscale>  0 0.76098722E+02</rscale>
<asrwt>0</asrwt>
<pdfrwt beam="1">  1        2 0.27561805E+00 0.33168303E+02</pdfrwt>
<pdfrwt beam="2">  1        2 0.19853914E+00 0.17459487E+03</pdfrwt>
<totfact> 0.33749980E+01</totfact>
</mgrwt>
</event>
<event>
13    1  0.2101801E-008  0.9146818E+02  0.7546771E-02  0.1343472E+00
          2   -1    0    0  503    0  0.00000000000E+00  0.00000000000E+00  0.15414831190E+04  0.15414831190E+04  0.00000000000E+00 0. -1.
          2   -1    0    0  502    0 -0.00000000000E+00 -0.00000000000E+00 -0.86693845814E+03  0.86693845814E+03  0.00000000000E+00 0. -1.
         24    2    1    2    0    0  0.18153540434E+02  0.15764349264E+02 -0.21307657445E+03  0.22939833206E+03  0.81510137011E+02 0.  0.
         25    2    1    2    0    0 -0.12503774882E+03  0.65890571870E+02  0.30882772672E+03  0.36190657885E+03  0.12500320368E+03 0.  0.
         24    2    1    2    0    0  0.89356988500E+01  0.18991183606E+02  0.21709617124E+03  0.23242878809E+03  0.80323609200E+02 0.  0.
        -11    1    3    3    0    0 -0.78871295755E+01  0.12076316272E+01 -0.19361329621E+03  0.19377763972E+03  0.00000000000E+00 0.  1.
         12    1    3    3    0    0  0.26040670009E+02  0.14556717637E+02 -0.19463278239E+02  0.35620692339E+02  0.00000000000E+00 0. -1.
        -13    1    5    5    0    0 -0.86375454645E+01 -0.10681122117E+02  0.18438782152E+03  0.18489878931E+03  0.00000000000E+00 0.  1.
         14    1    5    5    0    0  0.17573244314E+02  0.29672305723E+02  0.32708349719E+02  0.47529998779E+02  0.00000000000E+00 0. -1.
          5    1    4    4  501    0 -0.44982589116E+02  0.15357803804E+02  0.10529253975E+02  0.48910639440E+02  0.47000000000E+01 0.  1.
         -5    1    4    4    0  501 -0.80055159705E+02  0.50532768066E+02  0.29829847275E+03  0.31299593941E+03  0.47000000000E+01 0.  1.
          1    1    1    2  502    0  0.75689942295E+02 -0.43091630814E+02 -0.60740758406E+03  0.61362026464E+03  0.00000000000E+00 0. -1.
          1    1    1    2  503    0  0.22258567242E+02 -0.57554473926E+02  0.96910492143E+03  0.97106761352E+03  0.00000000000E+00 0. -1.
<mgrwt>
<rscale>  0 0.75129095E+02</rscale>
<asrwt>0</asrwt>
<pdfrwt beam="1">  1        2 0.22668869E+00 0.61708681E+02</pdfrwt>
<pdfrwt beam="2">  1        2 0.12749095E+00 0.91468182E+02</pdfrwt>
<totfact> 0.87588656E+01</totfact>
</mgrwt>
</event>
<event>
13    1  0.2101801E-008  0.5006027E+02  0.7546771E-02  0.1508468E+00
          2   -1    0    0  503    0  0.00000000000E+00  0.00000000000E+00  0.27382487334E+04  0.27382487334E+04  0.00000000000E+00 0. -1.
          2   -1    0    0  502    0 -0.00000000000E+00 -0.00000000000E+00 -0.11213431833E+04  0.11213431833E+04  0.00000000000E+00 0. -1.
         24    2    1    2    0    0 -0.60050172453E+03 -0.63489207520E+03  0.36981543063E+03  0.95232325675E+03  0.80410598152E+02 0.  0.
         25    2    1    2    0    0  0.29069661125E+03 -0.13774437976E+03  0.29463212338E+03  0.45377633923E+03  0.12500737565E+03 0.  0.
         24    2    1    2    0    0  0.32092604882E+03  0.72972316966E+03  0.26060158362E+03  0.84087630670E+03  0.60583369170E+02 0.  0.
        -11    1    5    5    0    0  0.20294975027E+03  0.52971983203E+03  0.18415339685E+03  0.59640940230E+03  0.00000000000E+00 0.  1.
         12    1    5    5    0    0  0.11797629855E+03  0.20000333764E+03  0.76448186774E+02  0.24446690440E+03  0.00000000000E+00 0. -1.
        -11    1    3    3    0    0 -0.40034310288E+03 -0.37661627033E+03  0.25567754783E+03  0.60620576009E+03  0.00000000000E+00 0.  1.
         12    1    3    3    0    0 -0.20015862165E+03 -0.25827580488E+03  0.11413788280E+03  0.34611749666E+03  0.00000000000E+00 0. -1.
          5    1    4    4  501    0  0.17135241172E+03 -0.95339122118E+02  0.25350809992E+03  0.32053025432E+03  0.47000000000E+01 0.  1.
         -5    1    4    4    0  501  0.11934419953E+03 -0.42405257644E+02  0.41124023460E+02  0.13324608491E+03  0.47000000000E+01 0.  1.
          1    1    1    2  502    0 -0.40220123956E+02  0.29828020308E+02 -0.45879643662E+03  0.46152089814E+03  0.00000000000E+00 0. -1.
          1    1    1    2  503    0  0.29099188415E+02  0.13085264994E+02  0.11506528490E+04  0.11510951159E+04  0.00000000000E+00 0. -1.
<mgrwt>
<rscale>  0 0.39965216E+02</rscale>
<asrwt>0</asrwt>
<pdfrwt beam="1">  1        2 0.40268364E+00 0.31905907E+02</pdfrwt>
<pdfrwt beam="2">  1        2 0.16490341E+00 0.50060274E+02</pdfrwt>
<totfact> 0.19198341E+01</totfact>
</mgrwt>
</event>
<event>
13    1  0.2101801E-008  0.9644586E+02  0.7546771E-02  0.1363209E+00
          2   -1    0    0  503    0  0.00000000000E+00  0.00000000000E+00  0.13510798898E+04  0.13510798898E+04  0.00000000000E+00 0. -1.
          2   -1    0    0  502    0 -0.00000000000E+00 -0.00000000000E+00 -0.16804626071E+04  0.16804626071E+04  0.00000000000E+00 0. -1.
         24    2    1    2    0    0 -0.86609485291E+01  0.14138398338E+03 -0.30852116067E+03  0.34821947641E+03  0.77505189394E+02 0.  0.
         25    2    1    2    0    0 -0.81740678023E+02 -0.22931488633E+03  0.49516902330E+03  0.56575907322E+03  0.12499644697E+03 0.  0.
         24    2    1    2    0    0  0.39548668032E+02 -0.48470702935E+02 -0.34087875822E+02  0.10642085060E+03  0.79056359500E+02 0.  0.
        -11    1    5    5    0    0  0.15669153430E+02 -0.59551652189E+02  0.21667008778E+01  0.61616688002E+02  0.00000000000E+00 0.  1.
         12    1    5    5    0    0  0.23879514602E+02  0.11080949254E+02 -0.36254576700E+02  0.44804162593E+02  0.00000000000E+00 0. -1.
        -13    1    3    3    0    0 -0.28092808099E+02  0.13326462750E+02 -0.74860157155E+02  0.81060740224E+02  0.00000000000E+00 0.  1.
         14    1    3    3    0    0  0.19431859570E+02  0.12805752063E+03 -0.23366100351E+03  0.26715873618E+03  0.00000000000E+00 0. -1.
          5    1    4    4  501    0 -0.11956510419E+02 -0.15372042673E+03  0.19638678933E+03  0.24972542674E+03  0.47000000000E+01 0. -1.
         -5    1    4    4    0  501 -0.69784167604E+02 -0.75594459594E+02  0.29878223397E+03  0.31603364648E+03  0.47000000000E+01 0. -1.
          1    1    1    2  502    0  0.16038769733E+02  0.46825271651E+02 -0.12430285697E+04  0.12440136146E+04  0.00000000000E+00 0. -1.
          1    1    1    2  503    0  0.34814188787E+02  0.89576334232E+02  0.76108586567E+03  0.76712948211E+03  0.00000000000E+00 0. -1.
<mgrwt>
<rscale>  0 0.69091813E+02</rscale>
<asrwt>0</asrwt>
<pdfrwt beam="1">  1        2 0.19868822E+00 0.96445859E+02</pdfrwt>
<pdfrwt beam="2">  1        2 0.24712685E+00 0.49495941E+02</pdfrwt>
<totfact> 0.41350678E+01</totfact>
</mgrwt>
</event>
<event>
13    1  0.2626103E-008  0.9116577E+02  0.7546771E-02  0.1364453E+00
          2   -1    0    0  503    0  0.00000000000E+00  0.00000000000E+00  0.10526825317E+04  0.10526825317E+04  0.00000000000E+00 0. -1.
          2   -1    0    0  502    0 -0.00000000000E+00 -0.00000000000E+00 -0.42494827074E+04  0.42494827074E+04  0.00000000000E+00 0. -1.
         24    2    1    2    0    0  0.49113827075E+02  0.72062078236E+02 -0.78330798892E+03  0.79240252963E+03  0.82007635777E+02 0.  0.
         25    2    1    2    0    0 -0.15822057735E+03 -0.75677770612E+02  0.66936334266E+03  0.70315924127E+03  0.12499903211E+03 0.  0.
         24    2    1    2    0    0 -0.27128190078E+02 -0.40947554061E+02 -0.26071992608E+03  0.27722384080E+03  0.80408564064E+02 0.  0.
        -11    1    3    3    0    0  0.59373567839E+02  0.20956465719E+02 -0.53431316473E+03  0.53801017836E+03  0.00000000000E+00 0.  1.
         12    1    3    3    0    0 -0.10259740764E+02  0.51105612517E+02 -0.24899482419E+03  0.25439235127E+03  0.00000000000E+00 0. -1.
        -11    1    5    5    0    0 -0.37497684958E+02 -0.58029106323E+01 -0.21647705520E+03  0.21977730906E+03  0.00000000000E+00 0.  1.
         12    1    5    5    0    0  0.10369494880E+02 -0.35144643429E+02 -0.44242870875E+02  0.57446531741E+02  0.00000000000E+00 0. -1.
          5    1    4    4  501    0 -0.13347419264E+03 -0.60923151970E+02  0.31422720282E+03  0.34682533866E+03  0.47000000000E+01 0. -1.
         -5    1    4    4    0  501 -0.24746384710E+02 -0.14754618642E+02  0.35513613984E+03  0.35633390261E+03  0.47000000000E+01 0. -1.
          1    1    1    2  502    0  0.96877332294E+02  0.78273938708E+02 -0.31726306529E+04  0.31750743750E+04  0.00000000000E+00 0. -1.
          1    1    1    2  503    0  0.39357608062E+02 -0.33710692272E+02  0.35049504961E+03  0.35430525242E+03  0.00000000000E+00 0. -1.
<mgrwt>
<rscale>  0 0.68733657E+02</rscale>
<asrwt>0</asrwt>
<pdfrwt beam="1">  1        2 0.15480625E+00 0.51821155E+02</pdfrwt>
<pdfrwt beam="2">  1        2 0.62492393E+00 0.91165773E+02</pdfrwt>
<totfact> 0.22317652E+00</totfact>
</mgrwt>
</event>
<event>
13    1  0.2101801E-008  0.3788281E+02  0.7546771E-02  0.1540743E+00
          2   -1    0    0  503    0  0.00000000000E+00  0.00000000000E+00  0.41728410282E+03  0.41728410282E+03  0.00000000000E+00 0. -1.
          2   -1    0    0  502    0 -0.00000000000E+00 -0.00000000000E+00 -0.25332684893E+04  0.25332684893E+04  0.00000000000E+00 0. -1.
         24    2    1    2    0    0  0.21918510757E+02  0.12226612473E+03 -0.61646216337E+03  0.63391258449E+03  0.79938348347E+02 0.  0.
         25    2    1    2    0    0 -0.64571232485E+02 -0.17147363412E+03  0.11736724884E+03  0.25094311671E+03  0.12499890184E+03 0.  0.
         24    2    1    2    0    0  0.71541152155E+02 -0.71733572711E+01 -0.82742921541E+03  0.83439468945E+03  0.80036227763E+02 0.  0.
        -11    1    3    3    0    0 -0.47480880167E+01 -0.10838972508E+02 -0.57154359128E+02  0.58366500941E+02  0.00000000000E+00 0.  1.
         12    1    3    3    0    0  0.26666598773E+02  0.13310509724E+03 -0.55930780424E+03  0.57554608354E+03  0.00000000000E+00 0. -1.
        -13    1    5    5    0    0 -0.82605022163E+01  0.14053594220E+02 -0.49955591113E+02  0.52548077899E+02  0.00000000000E+00 0.  1.
         14    1    5    5    0    0  0.79801654372E+02 -0.21226951491E+02 -0.77747362430E+03  0.78184661155E+03  0.00000000000E+00 0. -1.
          5    1    4    4  501    0 -0.85783086187E+02 -0.52148893720E+02  0.51599956328E+02  0.11297296351E+03  0.47000000000E+01 0.  1.
         -5    1    4    4    0  501  0.21211853702E+02 -0.11932474040E+03  0.65767292510E+02  0.13797015320E+03  0.47000000000E+01 0.  1.
          1    1    1    2  502    0  0.16391968835E+01  0.33983224511E+02 -0.10084699564E+04  0.10090437054E+04  0.00000000000E+00 0. -1.
          1    1    1    2  503    0 -0.30527627310E+02  0.22397642150E+02  0.21900969989E+03  0.22225849602E+03  0.00000000000E+00 0. -1.
<mgrwt>
<rscale>  0 0.35900929E+02</rscale>
<asrwt>0</asrwt>
<pdfrwt beam="1">  1        2 0.61365308E-01 0.37882808E+02</pdfrwt>
<pdfrwt beam="2">  1        2 0.37253949E+00 0.34022735E+02</pdfrwt>
<totfact> 0.73379598E+01</totfact>
</mgrwt>
</event>
<event>
13    1  0.2101801E-008  0.6875674E+02  0.7546771E-02  0.1402541E+00
          2   -1    0    0  502    0  0.00000000000E+00  0.00000000000E+00  0.18772887840E+04  0.18772887840E+04  0.00000000000E+00 0. -1.
          2   -1    0    0  503    0 -0.00000000000E+00 -0.00000000000E+00 -0.12886876336E+04  0.12886876336E+04  0.00000000000E+00 0. -1.
         24    2    1    2    0    0 -0.96144101085E+02  0.18189024651E+03 -0.66782482159E+03  0.70336752163E+03  0.80050785118E+02 0.  0.
         25    2    1    2    0    0  0.84411787561E+02 -0.30048852181E+03 -0.20186777147E+02  0.33682457853E+03  0.12499835643E+03 0.  0.
         24    2    1    2    0    0  0.47372641593E+02  0.50018145013E+02  0.52709282889E+01  0.11017527141E+03  0.85818562924E+02 0.  0.
        -13    1    3    3    0    0 -0.44895750728E+02  0.68106918215E+02 -0.39531039501E+03  0.40363905801E+03  0.00000000000E+00 0.  1.
         14    1    3    3    0    0 -0.51248350357E+02  0.11378332829E+03 -0.27251442658E+03  0.29972846362E+03  0.00000000000E+00 0. -1.
        -13    1    5    5    0    0  0.45084811015E+02  0.41089077755E+01 -0.28180087787E+02  0.53325797275E+02  0.00000000000E+00 0.  1.
         14    1    5    5    0    0  0.22878305783E+01  0.45909237237E+02  0.33451016076E+02  0.56849474131E+02  0.00000000000E+00 0. -1.
          5    1    4    4  501    0  0.43846730578E+02 -0.24627014234E+03  0.30599412064E+02  0.25205144874E+03  0.47000000000E+01 0.  1.
         -5    1    4    4    0  501  0.40565056983E+02 -0.54218379468E+02 -0.50786189211E+02  0.84773129792E+02  0.47000000000E+01 0.  1.
          1    1    1    2  502    0 -0.50425751652E+02  0.13035832682E+01  0.16398967750E+04  0.16406723891E+04  0.00000000000E+00 0. -1.
          1    1    1    2  503    0  0.14785423583E+02  0.67276547024E+02 -0.36855495408E+03  0.37493665692E+03  0.00000000000E+00 0. -1.
<mgrwt>
<rscale>  0 0.58892010E+02</rscale>
<asrwt>0</asrwt>
<pdfrwt beam="1">  1        2 0.27607188E+00 0.50442599E+02</pdfrwt>
<pdfrwt beam="2">  1        2 0.18951289E+00 0.68756743E+02</pdfrwt>
<totfact> 0.36780194E+01</totfact>
</mgrwt>
</event>
<event>
13    1  0.2101801E-008  0.1615357E+03  0.7546771E-02  0.1331654E+00
          2   -1    0    0  503    0  0.00000000000E+00  0.00000000000E+00  0.23472949874E+04  0.23472949874E+04  0.00000000000E+00 0. -1.
          2   -1    0    0  502    0 -0.00000000000E+00 -0.00000000000E+00 -0.10020886026E+04  0.10020886026E+04  0.00000000000E+00 0. -1.
         24    2    1    2    0    0  0.29432435746E+02 -0.42268301328E+02  0.32771737018E+02  0.99728471526E+02  0.78860026088E+02 0.  0.
         25    2    1    2    0    0 -0.24867327023E+02  0.74413855187E+02  0.12139156523E+04  0.12228542215E+04  0.12500172175E+03 0.  0.
         24    2    1    2    0    0 -0.57122359638E+02  0.87038448069E+02  0.36106488036E+03  0.38425405423E+03  0.80278732857E+02 0.  0.
        -11    1    3    3    0    0  0.14955229330E+02 -0.24496101284E+01  0.51295511705E+02  0.53487278817E+02  0.00000000000E+00 0.  1.
         12    1    3    3    0    0  0.14477206416E+02 -0.39818691200E+02 -0.18523774687E+02  0.46241192709E+02  0.00000000000E+00 0. -1.
        -11    1    5    5    0    0 -0.46814804516E+02  0.31672808108E+02  0.27935904670E+03  0.28501977066E+03  0.00000000000E+00 0.  1.
         12    1    5    5    0    0 -0.10307555122E+02  0.55365639961E+02  0.81705833659E+02  0.99234283566E+02  0.00000000000E+00 0. -1.
          5    1    4    4  501    0 -0.53397016886E+01  0.90524584519E+02  0.11549244713E+04  0.11584886004E+04  0.47000000000E+01 0.  1.
         -5    1    4    4    0  501 -0.19527625335E+02 -0.16110729331E+02  0.58991181009E+02  0.64365621162E+02  0.47000000000E+01 0.  1.
          1    1    1    2  502    0  0.42048909847E+02 -0.15645437838E+03 -0.94510521173E+03  0.95888995436E+03  0.00000000000E+00 0. -1.
          1    1    1    2  503    0  0.10508341068E+02  0.37270376456E+02  0.68255932690E+03  0.68365688831E+03  0.00000000000E+00 0. -1.
<mgrwt>
<rscale>  0 0.79089947E+02</rscale>
<asrwt>0</asrwt>
<pdfrwt beam="1">  1        2 0.34519044E+00 0.38723458E+02</pdfrwt>
<pdfrwt beam="2">  1        2 0.14736597E+00 0.16153567E+03</pdfrwt>
<totfact> 0.31337678E+01</totfact>
</mgrwt>
</event>
<event>
13    1  0.2101801E-008  0.9488234E+02  0.7546771E-02  0.1368254E+00
          2   -1    0    0  502    0  0.00000000000E+00  0.00000000000E+00  0.46108149302E+04  0.46108149302E+04  0.00000000000E+00 0. -1.
          2   -1    0    0  503    0 -0.00000000000E+00 -0.00000000000E+00 -0.25949825416E+04  0.25949825416E+04  0.00000000000E+00 0. -1.
         24    2    1    2    0    0  0.10003440978E+04  0.13078204286E+04 -0.94351950177E+02  0.16511677590E+04  0.79812846738E+02 0.  0.
         25    2    1    2    0    0 -0.81233740331E+03 -0.10680575732E+04 -0.10412744023E+03  0.13517052803E+04  0.12500241813E+03 0.  0.
         24    2    1    2    0    0 -0.16204577672E+03 -0.33275839882E+03  0.14176226492E+03  0.40100008678E+03  0.60971666382E+02 0.  0.
        -11    1    5    5    0    0 -0.85715597572E+02 -0.19580231457E+03  0.50660066264E+02  0.21966372567E+03  0.00000000000E+00 0.  1.
         12    1    5    5    0    0 -0.76330179152E+02 -0.13695608425E+03  0.91102198657E+02  0.18133636112E+03  0.00000000000E+00 0. -1.
        -11    1    3    3    0    0  0.73085063490E+03  0.89540586262E+03 -0.67403558246E+02  0.11577726672E+04  0.00000000000E+00 0.  1.
         12    1    3    3    0    0  0.26949346291E+03  0.41241456597E+03 -0.26948391931E+02  0.49339509179E+03  0.00000000000E+00 0. -1.
          5    1    4    4  501    0 -0.28813582990E+03 -0.32892653627E+03 -0.84130659358E+02  0.44532570168E+03  0.47000000000E+01 0. -1.
         -5    1    4    4    0  501 -0.52420157341E+03 -0.73913103691E+03 -0.19996780870E+02  0.90637957862E+03  0.47000000000E+01 0. -1.
          1    1    1    2  502    0  0.40873059248E+02  0.25623467783E+02  0.29344343157E+04  0.29348308166E+04  0.00000000000E+00 0. -1.
          1    1    1    2  503    0 -0.66833977026E+02  0.67372075638E+02 -0.86188480159E+03  0.86709352914E+03  0.00000000000E+00 0. -1.
<mgrwt>
<rscale>  0 0.67654966E+02</rscale>
<asrwt>0</asrwt>
<pdfrwt beam="1">  1        2 0.67806102E+00 0.48240741E+02</pdfrwt>
<pdfrwt beam="2">  1        2 0.38161508E+00 0.94882340E+02</pdfrwt>
<totfact> 0.23054189E-01</totfact>
</mgrwt>
</event>
<event>
13    1  0.2101801E-008  0.8684410E+02  0.7546771E-02  0.1428630E+00
          2   -1    0    0  503    0  0.00000000000E+00  0.00000000000E+00  0.21057390009E+04  0.21057390009E+04  0.00000000000E+00 0. -1.
          2   -1    0    0  502    0 -0.00000000000E+00 -0.00000000000E+00 -0.91719315768E+03  0.91719315768E+03  0.00000000000E+00 0. -1.
         24    2    1    2    0    0  0.11713989910E+03  0.34800199348E+02 -0.18509862109E+03  0.23548742979E+03  0.79120289596E+02 0.  0.
         25    2    1    2    0    0 -0.16437284762E+03 -0.82813435150E+02  0.25577970070E+03  0.33900529127E+03  0.12499933656E+03 0.  0.
         24    2    1    2    0    0 -0.47403671801E+01  0.80478329850E+02  0.20914019203E+03  0.23848244738E+03  0.81455663583E+02 0.  0.
        -13    1    5    5    0    0  0.37910894968E+02  0.36386155880E+02  0.83356067728E+02  0.98536401011E+02  0.00000000000E+00 0.  1.
         14    1    5    5    0    0 -0.42651262148E+02  0.44092173970E+02  0.12578412430E+03  0.13994604637E+03  0.00000000000E+00 0. -1.
        -13    1    3    3    0    0  0.43141932145E+02  0.33656543266E+02 -0.27198587100E+02  0.61104438088E+02  0.00000000000E+00 0.  1.
         14    1    3    3    0    0  0.73997966960E+02  0.11436560817E+01 -0.15790003399E+03  0.17438299171E+03  0.00000000000E+00 0. -1.
          5    1    4    4  501    0 -0.68280486766E+02 -0.65467974810E+01  0.17483176128E+02  0.70942489932E+02  0.47000000000E+01 0. -1.
         -5    1    4    4    0  501 -0.96092360853E+02 -0.76266637669E+02  0.23829652458E+03  0.26806280134E+03  0.47000000000E+01 0. -1.
          1    1    1    2  502    0  0.58422418156E+02 -0.64455531357E+02 -0.64753648860E+03  0.65335380808E+03  0.00000000000E+00 0. -1.
          1    1    1    2  503    0 -0.64491024619E+01  0.31990437309E+02  0.15562610602E+04  0.15566031820E+04  0.00000000000E+00 0. -1.
<mgrwt>
<rscale>  0 0.53236000E+02</rscale>
<asrwt>0</asrwt>
<pdfrwt beam="1">  1        2 0.30966750E+00 0.32634016E+02</pdfrwt>
<pdfrwt beam="2">  1        2 0.13488135E+00 0.86844098E+02</pdfrwt>
<totfact> 0.47827223E+01</totfact>
</mgrwt>
</event>
<event>
13    1  0.2101801E-008  0.1118861E+03  0.7546771E-02  0.1279865E+00
          2   -1    0    0  502    0  0.00000000000E+00  0.00000000000E+00  0.22735184315E+04  0.22735184315E+04  0.00000000000E+00 0. -1.
          2   -1    0    0  503    0 -0.00000000000E+00 -0.00000000000E+00 -0.46195486484E+03  0.46195486484E+03  0.00000000000E+00 0. -1.
         24    2    1    2    0    0 -0.33122197133E+02  0.50240789847E+02 -0.29585741420E+03  0.31256040937E+03  0.80877580691E+02 0.  0.
         25    2    1    2    0    0 -0.16638963350E+03  0.21914535253E+02  0.38038293623E+03  0.43414570553E+03  0.12500223382E+03 0.  0.
         24    2    1    2    0    0 -0.28441154056E+02  0.28157122430E+02  0.11965512550E+03  0.14809445910E+03  0.77542871811E+02 0.  0.
        -11    1    5    5    0    0 -0.22406967559E+02  0.52335138240E+02  0.10429501604E+03  0.11882124920E+03  0.00000000000E+00 0.  1.
         12    1    5    5    0    0 -0.60341864972E+01 -0.24178015810E+02  0.15360109463E+02  0.29273209902E+02  0.00000000000E+00 0. -1.
        -13    1    3    3    0    0  0.59031814062E+01 -0.18285566563E+02 -0.91923457517E+02  0.93910231270E+02  0.00000000000E+00 0.  1.
         14    1    3    3    0    0 -0.39025378539E+02  0.68526356411E+02 -0.20393395668E+03  0.21865017810E+03  0.00000000000E+00 0. -1.
          5    1    4    4  501    0 -0.33148089080E+02 -0.10227596171E+02  0.22154341651E+03  0.22429216423E+03  0.47000000000E+01 0.  1.
         -5    1    4    4    0  501 -0.13324154442E+03  0.32142131424E+02  0.15883951971E+03  0.20985354130E+03  0.47000000000E+01 0.  1.
          1    1    1    2  502    0  0.14561168425E+03 -0.63839328518E+02  0.17023709449E+04  0.17097792420E+04  0.00000000000E+00 0. -1.
          1    1    1    2  503    0  0.82341300447E+02 -0.36473119013E+02 -0.94988025719E+02  0.13089348036E+03  0.00000000000E+00 0. -1.
<mgrwt>
<rscale>  0 0.10020523E+03</rscale>
<asrwt>0</asrwt>
<pdfrwt beam="1">  1        2 0.33434094E+00 0.11188610E+03</pdfrwt>
<pdfrwt beam="2">  1        2 0.67934540E-01 0.89743846E+02</pdfrwt>
<totfact> 0.74927390E+01</totfact>
</mgrwt>
</event>
<event>
13    1  0.2101801E-008  0.3064002E+02  0.7546771E-02  0.1613417E+00
          2   -1    0    0  503    0  0.00000000000E+00  0.00000000000E+00  0.18897547684E+04  0.18897547684E+04  0.00000000000E+00 0. -1.
          2   -1    0    0  502    0 -0.00000000000E+00 -0.00000000000E+00 -0.42719307022E+03  0.42719307022E+03  0.00000000000E+00 0. -1.
         24    2    1    2    0    0  0.82373248483E+02 -0.52271764803E+02 -0.22500610202E+03  0.25817796531E+03  0.80687213144E+02 0.  0.
         25    2    1    2    0    0 -0.14511942840E+03 -0.72148195870E+02  0.10851577932E+04  0.11042906091E+04  0.12500120974E+03 0.  0.
         24    2    1    2    0    0  0.62680541858E+02  0.14000017349E+03  0.22577622220E+03  0.28450255893E+03  0.80236554150E+02 0.  0.
        -11    1    5    5    0    0  0.38396624924E+02  0.30911809213E+02  0.26344670598E+02  0.55891702634E+02  0.00000000000E+00 0.  1.
         12    1    5    5    0    0  0.24283916934E+02  0.10908836428E+03  0.19943155160E+03  0.22861085629E+03  0.00000000000E+00 0. -1.
        -13    1    3    3    0    0  0.16301240467E+02  0.98656516766E+01 -0.42599133809E+01  0.19524558530E+02  0.00000000000E+00 0.  1.
         14    1    3    3    0    0  0.66072008016E+02 -0.62137416479E+02 -0.22074618863E+03  0.23865340678E+03  0.00000000000E+00 0. -1.
          5    1    4    4  501    0 -0.41829024068E+01 -0.49895784939E+02  0.14774847190E+03  0.15607301809E+03  0.47000000000E+01 0. -1.
         -5    1    4    4    0  501 -0.14093652600E+03 -0.22252410931E+02  0.93740932133E+03  0.94821759099E+03  0.47000000000E+01 0. -1.
          1    1    1    2  502    0  0.26858169447E+02 -0.14802421977E+02 -0.14472038052E+03  0.14793397682E+03  0.00000000000E+00 0. -1.
          1    1    1    2  503    0 -0.26792531385E+02 -0.77779083897E+00  0.52135416532E+03  0.52204272851E+03  0.00000000000E+00 0. -1.
<mgrwt>
<rscale>  0 0.28657799E+02</rscale>
<asrwt>0</asrwt>
<pdfrwt beam="1">  1        2 0.27790511E+00 0.26803819E+02</pdfrwt>
<pdfrwt beam="2">  1        2 0.62822511E-01 0.30640017E+02</pdfrwt>
<totfact> 0.14568882E+02</totfact>
</mgrwt>
</event>
<event>
13    1  0.2101801E-008  0.1647177E+03  0.7546771E-02  0.1197962E+00
          2   -1    0    0  502    0  0.00000000000E+00  0.00000000000E+00  0.28506805580E+04  0.28506805580E+04  0.00000000000E+00 0. -1.
          2   -1    0    0  503    0 -0.00000000000E+00 -0.00000000000E+00 -0.26528420547E+04  0.26528420547E+04  0.00000000000E+00 0. -1.
         24    2    1    2    0    0  0.25151230724E+02 -0.12122611929E+03 -0.42880790838E+03  0.45318360815E+03  0.78554465161E+02 0.  0.
         25    2    1    2    0    0 -0.77965800630E+02  0.14794193649E+03  0.67769031948E+03  0.70912287138E+03  0.12500237981E+03 0.  0.
         24    2    1    2    0    0  0.47743349119E+02  0.32230791743E+02 -0.50934245747E+02  0.11544483642E+03  0.86110170974E+02 0.  0.
        -11    1    5    5    0    0  0.41889631603E+02  0.61122189820E+02 -0.37548862682E+02  0.83069732231E+02  0.00000000000E+00 0.  1.
         12    1    5    5    0    0  0.58537175164E+01 -0.28891398077E+02 -0.13385383065E+02  0.32375104191E+02  0.00000000000E+00 0. -1.
        -11    1    3    3    0    0 -0.26460053476E+00 -0.12120471790E+03 -0.35303989998E+03  0.37326642581E+03  0.00000000000E+00 0.  1.
         12    1    3    3    0    0  0.25415831258E+02 -0.21401394834E-01 -0.75768008400E+02  0.79917182342E+02  0.00000000000E+00 0. -1.
          5    1    4    4  501    0 -0.42961504589E+02  0.14191793336E+02  0.35675472293E+03  0.35964304554E+03  0.47000000000E+01 0.  1.
         -5    1    4    4    0  501 -0.35004296040E+02  0.13375014315E+03  0.32093559655E+03  0.34947982584E+03  0.47000000000E+01 0.  1.
          1    1    1    2  502    0  0.83459946833E+02 -0.21998532294E+03  0.21024613682E+04  0.21155857132E+04  0.00000000000E+00 0. -1.
          1    1    1    2  503    0 -0.78388726047E+02  0.16103871400E+03 -0.21025710303E+04  0.21101855836E+04  0.00000000000E+00 0. -1.
<mgrwt>
<rscale>  0 0.15206172E+03</rscale>
<asrwt>0</asrwt>
<pdfrwt beam="1">  1        2 0.41921773E+00 0.16471772E+03</pdfrwt>
<pdfrwt beam="2">  1        2 0.39012383E+00 0.14037813E+03</pdfrwt>
<totfact> 0.21060299E+00</totfact>
</mgrwt>
</event>
<event>
13    1  0.2101801E-008  0.1220728E+03  0.7546771E-02  0.1245069E+00
          2   -1    0    0  502    0  0.00000000000E+00  0.00000000000E+00  0.30160124969E+04  0.30160124969E+04  0.00000000000E+00 0. -1.
          2   -1    0    0  503    0 -0.00000000000E+00 -0.00000000000E+00 -0.27286773800E+04  0.27286773800E+04  0.00000000000E+00 0. -1.
         24    2    1    2    0    0 -0.65419298196E+02  0.63653468727E+02 -0.94470160284E+03  0.95261478312E+03  0.81745690743E+02 0.  0.
         25    2    1    2    0    0  0.66798122000E+02 -0.30400936561E+03  0.49821936472E+03  0.60061041693E+03  0.12500661605E+03 0.  0.
         24    2    1    2    0    0 -0.46909585011E+02 -0.41226666469E+02 -0.31347864438E+03  0.32942517384E+03  0.79699043178E+02 0.  0.
        -11    1    5    5    0    0 -0.38813575884E+02  0.16867912229E+02 -0.11952359188E+03  0.12679475207E+03  0.00000000000E+00 0.  1.
         12    1    5    5    0    0 -0.80960091273E+01 -0.58094578698E+02 -0.19395505250E+03  0.20263042177E+03  0.00000000000E+00 0. -1.
        -13    1    3    3    0    0  0.63998159157E+01  0.41565129324E+02 -0.48424387931E+03  0.48606661300E+03  0.00000000000E+00 0.  1.
         14    1    3    3    0    0 -0.71819114111E+02  0.22088339403E+02 -0.46045772353E+03  0.46654817013E+03  0.00000000000E+00 0. -1.
          5    1    4    4  501    0  0.10372328874E+03 -0.23715065488E+03  0.38184018325E+03  0.46132739923E+03  0.47000000000E+01 0. -1.
         -5    1    4    4    0  501 -0.36925166736E+02 -0.66858710738E+02  0.11637918147E+03  0.13928301770E+03  0.47000000000E+01 0. -1.
          1    1    1    2  502    0 -0.97622338260E+01  0.11524757965E+03  0.24478391713E+04  0.24505701203E+04  0.00000000000E+00 0. -1.
          1    1    1    2  503    0  0.55292995033E+02  0.16633498371E+03 -0.14005431719E+04  0.14114693827E+04  0.00000000000E+00 0. -1.
<mgrwt>
<rscale>  0 0.11881251E+03</rscale>
<asrwt>0</asrwt>
<pdfrwt beam="1">  1        2 0.44353125E+00 0.11563925E+03</pdfrwt>
<pdfrwt beam="2">  1        2 0.40127608E+00 0.12207284E+03</pdfrwt>
<totfact> 0.16849734E+00</totfact>
</mgrwt>
</event>
<event>
13    1  0.2101801E-008  0.5966297E+02  0.7546771E-02  0.1417591E+00
          2   -1    0    0  503    0  0.00000000000E+00  0.00000000000E+00  0.21988666695E+04  0.21988666695E+04  0.00000000000E+00 0. -1.
          2   -1    0    0  502    0 -0.00000000000E+00 -0.00000000000E+00 -0.25988185332E+04  0.25988185332E+04  0.00000000000E+00 0. -1.
         24    2    1    2    0    0  0.20099487647E+03  0.12624263536E+03 -0.12955587377E+04  0.13195670685E+04  0.80303562892E+02 0.  0.
         25    2    1    2    0    0  0.26487733231E+03  0.32124316533E+02  0.48250840224E+03  0.56535626472E+03  0.12498549895E+03 0.  0.
         24    2    1    2    0    0 -0.38424644995E+03 -0.23399974673E+03  0.13319440405E+03  0.47936100938E+03  0.98209023417E+02 0.  0.
        -11    1    5    5    0    0 -0.28833912035E+03 -0.12581120368E+03  0.74296406643E+02  0.32324582493E+03  0.00000000000E+00 0.  1.
         12    1    5    5    0    0 -0.95907329593E+02 -0.10818854305E+03  0.58897997405E+02  0.15611518445E+03  0.00000000000E+00 0. -1.
        -13    1    3    3    0    0  0.67668984477E+02  0.86074044925E+02 -0.49228674564E+03  0.50431544949E+03  0.00000000000E+00 0.  1.
         14    1    3    3    0    0  0.13332589199E+03  0.40168590431E+02 -0.80327199205E+03  0.81525161904E+03  0.00000000000E+00 0. -1.
          5    1    4    4  501    0  0.26451319297E+03  0.54252989104E+02  0.42486026976E+03  0.50342720915E+03  0.47000000000E+01 0.  1.
         -5    1    4    4    0  501  0.36413933975E+00 -0.22128672571E+02  0.57648132472E+02  0.61929055577E+02  0.47000000000E+01 0.  1.
          1    1    1    2  502    0 -0.42941136822E+02  0.41348486869E+02 -0.10754302605E+04  0.10770811872E+04  0.00000000000E+00 0. -1.
          1    1    1    2  503    0 -0.38684622013E+02  0.34284307967E+02  0.13553343283E+04  0.13563196729E+04  0.00000000000E+00 0. -1.
<mgrwt>
<rscale>  0 0.55533885E+02</rscale>
<asrwt>0</asrwt>
<pdfrwt beam="1">  1        2 0.32336275E+00 0.51690558E+02</pdfrwt>
<pdfrwt beam="2">  1        2 0.38217919E+00 0.59662973E+02</pdfrwt>
<totfact> 0.61992895E+00</totfact>
</mgrwt>
</event>
<event>
13    1  0.2101801E-008  0.4651929E+02  0.7546771E-02  0.1490370E+00
          2   -1    0    0  502    0  0.00000000000E+00  0.00000000000E+00  0.22437451088E+04  0.22437451088E+04  0.00000000000E+00 0. -1.
          2   -1    0    0  503    0 -0.00000000000E+00 -0.00000000000E+00 -0.18024330923E+04  0.18024330923E+04  0.00000000000E+00 0. -1.
         24    2    1    2    0    0  0.25329926766E+03  0.49949064813E+03 -0.11051788466E+04  0.12410533851E+04  0.71706311740E+02 0.  0.
         25    2    1    2    0    0  0.11015459060E+03  0.56985975862E+02  0.33537536177E+02  0.17925599683E+03  0.12500604302E+03 0.  0.
         24    2    1    2    0    0 -0.41917566388E+03 -0.49211345673E+03  0.33504133850E+03  0.73226736032E+03  0.77967281586E+02 0.  0.
        -11    1    3    3    0    0  0.88289529475E+02  0.20270886123E+03 -0.50906314007E+03  0.55500558917E+03  0.00000000000E+00 0.  1.
         12    1    3    3    0    0  0.16500973818E+03  0.29678178690E+03 -0.59611570654E+03  0.68604779594E+03  0.00000000000E+00 0. -1.
        -13    1    5    5    0    0 -0.33044206980E+03 -0.40578766349E+03  0.30172950931E+03  0.60406645837E+03  0.00000000000E+00 0.  1.
         14    1    5    5    0    0 -0.88733594079E+02 -0.86325793244E+02  0.33311829186E+02  0.12820090195E+03  0.00000000000E+00 0. -1.
          5    1    4    4  501    0  0.76188079073E+02  0.93846387119E+02  0.43190817971E+01  0.12104756187E+03  0.47000000000E+01 0. -1.
         -5    1    4    4    0  501  0.33966511524E+02 -0.36860411257E+02  0.29218454380E+02  0.58208434952E+02  0.47000000000E+01 0. -1.
          1    1    1    2  502    0  0.23241798905E+02 -0.31174591698E+02  0.15340027632E+04  0.15344955242E+04  0.00000000000E+00 0. -1.
          1    1    1    2  503    0  0.32480006720E+02 -0.33188575562E+02 -0.35609077475E+03  0.35910593458E+03  0.00000000000E+00 0. -1.
<mgrwt>
<rscale>  0 0.42531147E+02</rscale>
<asrwt>0</asrwt>
<pdfrwt beam="1">  1        2 0.32996252E+00 0.38884912E+02</pdfrwt>
<pdfrwt beam="2">  1        2 0.26506369E+00 0.46519289E+02</pdfrwt>
<totfact> 0.15026567E+01</totfact>
</mgrwt>
</event>
<event>
13    1  0.2101801E-008  0.1167869E+03  0.7546771E-02  0.1334859E+00
          2   -1    0    0  502    0  0.00000000000E+00  0.00000000000E+00  0.19272722350E+04  0.19272722350E+04  0.00000000000E+00 0. -1.
          2   -1    0    0  503    0 -0.00000000000E+00 -0.00000000000E+00 -0.22943869155E+04  0.22943869155E+04  0.00000000000E+00 0. -1.
         24    2    1    2    0    0 -0.19588975911E+02 -0.21589393408E+02 -0.16328625619E+04  0.16351430009E+04  0.81256737632E+02 0.  0.
         25    2    1    2    0    0  0.61974920470E+02  0.13237730607E+03  0.13329933882E+03  0.23400492159E+03  0.12499979068E+03 0.  0.
         24    2    1    2    0    0  0.75908325572E+02 -0.49376076777E+02  0.54888126834E+03  0.56219528580E+03  0.81196193219E+02 0.  0.
        -13    1    5    5    0    0  0.74297007531E+02 -0.54438097053E+02  0.54920329699E+03  0.55687324694E+03  0.00000000000E+00 0.  1.
         14    1    5    5    0    0  0.16113180407E+01  0.50620202762E+01 -0.32202865214E+00  0.53220388535E+01  0.00000000000E+00 0. -1.
        -13    1    3    3    0    0 -0.36623282483E+02 -0.94249880116E+01 -0.33761827178E+03  0.33972958756E+03  0.00000000000E+00 0.  1.
         14    1    3    3    0    0  0.17034306572E+02 -0.12164405397E+02 -0.12952442901E+04  0.12954134133E+04  0.00000000000E+00 0. -1.
          5    1    4    4  501    0  0.88281522369E+02  0.82098514782E+02  0.44650495531E+02  0.12864505460E+03  0.47000000000E+01 0.  1.
         -5    1    4    4    0  501 -0.26306601899E+02  0.50278791285E+02  0.88648843285E+02  0.10535986699E+03  0.47000000000E+01 0.  1.
          1    1    1    2  502    0 -0.33068948283E+02  0.40232836867E+02  0.11790696087E+04  0.11802192079E+04  0.00000000000E+00 0. -1.
          1    1    1    2  503    0 -0.85225321848E+02 -0.10164467275E+03 -0.59550233447E+03  0.61009673441E+03  0.00000000000E+00 0. -1.
<mgrwt>
<rscale>  0 0.77988215E+02</rscale>
<asrwt>0</asrwt>
<pdfrwt beam="1">  1        2 0.28342239E+00 0.52079137E+02</pdfrwt>
<pdfrwt beam="2">  1        2 0.33740984E+00 0.11678691E+03</pdfrwt>
<totfact> 0.10725061E+01</totfact>
</mgrwt>
</event>
<event>
13    1  0.2101801E-008  0.1017812E+03  0.7546771E-02  0.1355317E+00
         -1   -1    0    0    0  501 -0.00000000000E+00  0.00000000000E+00  0.16949638129E+04  0.16949638129E+04  0.00000000000E+00 0.  1.
          2   -1    0    0  503    0  0.00000000000E+00 -0.00000000000E+00 -0.16456776935E+04  0.16456776935E+04  0.00000000000E+00 0. -1.
         24    2    1    2    0    0 -0.66100352424E+02 -0.99544609428E+01  0.21844035045E+03  0.24176929919E+03  0.79169813983E+02 0.  0.
         25    2    1    2    0    0  0.10578286856E+03  0.52136101375E+02 -0.36110463768E+03  0.39991607357E+03  0.12501247219E+03 0.  0.
         24    2    1    2    0    0  0.10069436352E+03 -0.59623795887E+02 -0.78921242092E+02  0.16146284142E+03  0.78404941344E+02 0.  0.
        -11    1    3    3    0    0 -0.58485856099E+02 -0.37238875786E+02  0.18705154670E+03  0.19948837148E+03  0.00000000000E+00 0.  1.
         12    1    3    3    0    0 -0.76144963255E+01  0.27284414843E+02  0.31388803750E+02  0.42280927715E+02  0.00000000000E+00 0. -1.
        -13    1    5    5    0    0  0.87465414400E+02 -0.78385581481E+02 -0.61044391957E+02  0.13236659658E+03  0.00000000000E+00 0.  1.
         14    1    5    5    0    0  0.13228949118E+02  0.18761785593E+02 -0.17876850134E+02  0.29096244846E+02  0.00000000000E+00 0. -1.
          5    1    4    4  502    0  0.10925055126E+03  0.84177861541E+02 -0.27114811962E+03  0.30424494753E+03  0.47000000000E+01 0. -1.
         -5    1    4    4    0  502 -0.34676826947E+01 -0.32041760166E+02 -0.89956518055E+02  0.95671126043E+02  0.47000000000E+01 0. -1.
          1    1    1    2  503    0 -0.45910959576E+02 -0.20106822039E+02 -0.11309152284E+04  0.11320253329E+04  0.00000000000E+00 0. -1.
         -2    1    1    2    0  501 -0.94465920083E+02  0.37548977494E+02  0.14017868771E+04  0.14054679593E+04  0.00000000000E+00 0.  1.
<mgrwt>
<rscale>  0 0.71423811E+02</rscale>
<asrwt>0</asrwt>
<pdfrwt beam="2">  1        2 0.24201142E+00 0.50120859E+02</pdfrwt>
<pdfrwt beam="1">  1       -1 0.24925939E+00 0.10178119E+03</pdfrwt>
<totfact> 0.14802819E+00</totfact>
</mgrwt>
</event>
<event>
13    1  0.2101801E-008  0.1624990E+03  0.7546771E-02  0.1200318E+00
          2   -1    0    0  502    0  0.00000000000E+00  0.00000000000E+00  0.27020284234E+03  0.27020284234E+03  0.00000000000E+00 0. -1.
          2   -1    0    0  503    0 -0.00000000000E+00 -0.00000000000E+00 -0.18064551918E+04  0.18064551918E+04  0.00000000000E+00 0. -1.
         24    2    1    2    0    0 -0.12221864331E+02 -0.78588981857E+02 -0.20447101780E+02  0.11400244169E+03  0.79075095343E+02 0.  0.
         25    2    1    2    0    0  0.24252290390E+03 -0.70984466711E+02 -0.78433302439E+03  0.83346217790E+03  0.12499902164E+03 0.  0.
         24    2    1    2    0    0  0.38254480947E+02  0.48481099472E+02 -0.34492447984E+03  0.35951778081E+03  0.80413404386E+02 0.  0.
        -13    1    3    3    0    0 -0.39392229355E+02 -0.45970924000E+02  0.10531731222E+02  0.61449092340E+02  0.00000000000E+00 0.  1.
         14    1    3    3    0    0  0.27170365024E+02 -0.32618057857E+02 -0.30978833002E+02  0.52553349352E+02  0.00000000000E+00 0. -1.
        -13    1    5    5    0    0  0.12562053625E+02  0.21814742476E+02 -0.30107112713E+03  0.30212168372E+03  0.00000000000E+00 0.  1.
         14    1    5    5    0    0  0.25692427322E+02  0.26666356997E+02 -0.43853352706E+02  0.57396097086E+02  0.00000000000E+00 0. -1.
          5    1    4    4  501    0  0.15676864112E+02  0.67976045422E+01 -0.21416576816E+03  0.21489773789E+03  0.47000000000E+01 0. -1.
         -5    1    4    4    0  501  0.22684603979E+03 -0.77782071253E+02 -0.57016725623E+03  0.61856444002E+03  0.47000000000E+01 0. -1.
          1    1    1    2  502    0 -0.68966398484E+02 -0.10638294451E+03  0.12793960281E+03  0.18011728671E+03  0.00000000000E+00 0. -1.
          1    1    1    2  503    0 -0.19958912203E+03  0.20747529361E+03 -0.51448734621E+03  0.58955834698E+03  0.00000000000E+00 0. -1.
<mgrwt>
<rscale>  0 0.15012636E+03</rscale>
<asrwt>0</asrwt>
<pdfrwt beam="1">  1        2 0.39735712E-01 0.13869580E+03</pdfrwt>
<pdfrwt beam="2">  1        2 0.26565518E+00 0.16249896E+03</pdfrwt>
<totfact> 0.21523242E+02</totfact>
</mgrwt>
</event>
<event>
13    1  0.2101801E-008  0.4131948E+02  0.7546771E-02  0.1508621E+00
         -1   -1    0    0    0  501  0.00000000000E+00  0.00000000000E+00  0.34125711828E+04  0.34125711828E+04  0.00000000000E+00 0.  1.
         -3   -1    0    0    0  502 -0.00000000000E+00 -0.00000000000E+00 -0.77730277039E+03  0.77730277039E+03  0.00000000000E+00 0.  1.
         24    2    1    2    0    0 -0.11752456171E+03 -0.84692626684E+02 -0.29039269497E+03  0.33434119478E+03  0.80444102434E+02 0.  0.
         25    2    1    2    0    0  0.14375141519E+03  0.12697121756E+03  0.12995586066E+04  0.13195696914E+04  0.12500175602E+03 0.  0.
         24    2    1    2    0    0  0.38717521029E+02 -0.94593013923E+00  0.37120357040E+02  0.10339459114E+03  0.88388796529E+02 0.  0.
        -11    1    5    5    0    0 -0.28754423056E+02 -0.64972195490E+00  0.14656051742E+02  0.32280626335E+02  0.00000000000E+00 0.  1.
         12    1    5    5    0    0  0.67471944085E+02 -0.29620818433E+00  0.22464305297E+02  0.71113964806E+02  0.00000000000E+00 0. -1.
        -13    1    3    3    0    0 -0.92410417236E+02 -0.17735269934E+02 -0.15952746430E+03  0.18521133032E+03  0.00000000000E+00 0.  1.
         14    1    3    3    0    0 -0.25114144472E+02 -0.66957356750E+02 -0.13086523067E+03  0.14912986446E+03  0.00000000000E+00 0. -1.
          5    1    4    4  503    0  0.13078603689E+03  0.12779723283E+03  0.12896757401E+04  0.13025830971E+04  0.47000000000E+01 0. -1.
         -5    1    4    4    0  503  0.12965378304E+02 -0.82601527199E+00  0.98828664368E+01  0.16986594268E+02  0.47000000000E+01 0. -1.
         -2    1    1    2    0  501 -0.37050214643E+02 -0.10881930764E+02  0.20095786162E+04  0.20099495888E+04  0.00000000000E+00 0.  1.
         -4    1    1    2    0  502 -0.27894159870E+02 -0.30450729971E+02 -0.42059647244E+03  0.42261888711E+03  0.00000000000E+00 0.  1.
<mgrwt>
<rscale>  0 0.39944470E+02</rscale>
<asrwt>0</asrwt>
<pdfrwt beam="1">  1       -1 0.50184870E+00 0.38615215E+02</pdfrwt>
<pdfrwt beam="2">  1       -3 0.11430923E+00 0.41319482E+02</pdfrwt>
<totfact> 0.75654776E-03</totfact>
</mgrwt>
</event>
<event>
13    1  0.2101801E-008  0.1703852E+03  0.7546771E-02  0.1256709E+00
          2   -1    0    0  502    0  0.00000000000E+00  0.00000000000E+00  0.38378846542E+04  0.38378846542E+04  0.00000000000E+00 0. -1.
          2   -1    0    0  503    0 -0.00000000000E+00 -0.00000000000E+00 -0.23634503920E+03  0.23634503920E+03  0.00000000000E+00 0. -1.
         24    2    1    2    0    0  0.96796344066E+02 -0.28737924959E+02  0.51753236745E+01  0.13214511364E+03  0.85089050573E+02 0.  0.
         25    2    1    2    0    0 -0.18708258899E+03  0.62373715277E+02  0.35323841048E+01  0.23351200083E+03  0.12500000534E+03 0.  0.
         24    2    1    2    0    0  0.14523948932E+03 -0.12052745680E+03  0.79970925784E+03  0.82776401575E+03  0.10018478725E+03 0.  0.
        -11    1    3    3    0    0 -0.62508267676E+01 -0.27949463592E+02 -0.28586012964E+01  0.28782233265E+02  0.00000000000E+00 0.  1.
         12    1    3    3    0    0  0.10304717083E+03 -0.78846136647E+00  0.80339249709E+01  0.10336288037E+03  0.00000000000E+00 0. -1.
        -13    1    5    5    0    0  0.34385746103E+02 -0.58507296282E+02  0.13580418501E+03  0.15181653375E+03  0.00000000000E+00 0.  1.
         14    1    5    5    0    0  0.11085374322E+03 -0.62020160522E+02  0.66390507282E+03  0.67594748200E+03  0.00000000000E+00 0. -1.
          5    1    4    4  501    0 -0.11449154667E+03 -0.27243274932E+02  0.74902107056E+01  0.11801992859E+03  0.47000000000E+01 0.  1.
         -5    1    4    4    0  501 -0.72591042313E+02  0.89616990209E+02 -0.39578266008E+01  0.11549207224E+03  0.47000000000E+01 0.  1.
          1    1    1    2  502    0 -0.58736129873E+02  0.16056255695E+03  0.28013688502E+04  0.28065811413E+04  0.00000000000E+00 0. -1.
          1    1    1    2  503    0  0.37828854680E+01 -0.73670890461E+02 -0.82462008959E+01  0.74227421839E+02  0.00000000000E+00 0. -1.
<mgrwt>
<rscale>  0 0.11211142E+03</rscale>
<asrwt>0</asrwt>
<pdfrwt beam="1">  1        2 0.56439476E+00 0.17038524E+03</pdfrwt>
<pdfrwt beam="2">  1        2 0.34756626E-01 0.73767949E+02</pdfrwt>
<totfact> 0.19274478E+01</totfact>
</mgrwt>
</event>
<event>
13    1  0.2101801E-008  0.1201116E+03  0.7546771E-02  0.1353134E+00
          2   -1    0    0  502    0  0.00000000000E+00  0.00000000000E+00  0.14921999025E+04  0.14921999025E+04  0.00000000000E+00 0. -1.
          4   -1    0    0  503    0 -0.00000000000E+00 -0.00000000000E+00 -0.10425887166E+03  0.10425887166E+03  0.00000000000E+00 0. -1.
         24    2    1    2    0    0 -0.59083437138E+02  0.18515338946E+02  0.13133418584E+03  0.16589266156E+03  0.80237375764E+02 0.  0.
         25    2    1    2    0    0  0.13771634230E+03 -0.24155854701E+03  0.52946864680E+03  0.61097105163E+03  0.12502901828E+03 0.  0.
         24    2    1    2    0    0 -0.85193643921E+02  0.68571333084E+02  0.16211743634E+03  0.21121953234E+03  0.79822571927E+02 0.  0.
        -11    1    5    5    0    0 -0.91885317762E+02  0.76331984398E+02  0.16160186765E+03  0.20095931700E+03  0.00000000000E+00 0.  1.
         12    1    5    5    0    0  0.66916738409E+01 -0.77606513136E+01  0.51556869071E+00  0.10260215333E+02  0.00000000000E+00 0. -1.
        -13    1    3    3    0    0 -0.39901727446E+02  0.40915073727E+02  0.12238966310E+03  0.13507561122E+03  0.00000000000E+00 0.  1.
         14    1    3    3    0    0 -0.19181709692E+02 -0.22399734780E+02  0.89445227364E+01  0.30817050344E+02  0.00000000000E+00 0. -1.
          5    1    4    4  501    0  0.32391074531E+02  0.73142689778E+01  0.43881219283E+02  0.55229807584E+02  0.47000000000E+01 0.  1.
         -5    1    4    4    0  501  0.10532526776E+03 -0.24887281599E+03  0.48558742752E+03  0.55574124404E+03  0.47000000000E+01 0.  1.
          1    1    1    2  502    0 -0.99543356759E+01  0.11448259132E+03  0.55105889689E+03  0.56291319078E+03  0.00000000000E+00 0. -1.
          3    1    1    2  503    0  0.16515074440E+02  0.39989283655E+02  0.13961864975E+02  0.45462337870E+02  0.00000000000E+00 0. -1.
<mgrwt>
<rscale>  0 0.72087927E+02</rscale>
<asrwt>0</asrwt>
<pdfrwt beam="1">  1        2 0.21944115E+00 0.12011157E+03</pdfrwt>
<pdfrwt beam="2">  1        4 0.15332188E-01 0.43265350E+02</pdfrwt>
<totfact> 0.24851568E+02</totfact>
</mgrwt>
</event>
<event>
13    1  0.2101801E-008  0.8179919E+02  0.7546771E-02  0.1474708E+00
          2   -1    0    0  502    0  0.00000000000E+00  0.00000000000E+00  0.14225061473E+04  0.14225061473E+04  0.00000000000E+00 0. -1.
          2   -1    0    0  503    0 -0.00000000000E+00 -0.00000000000E+00 -0.19365928367E+04  0.19365928367E+04  0.00000000000E+00 0. -1.
         24    2    1    2    0    0  0.45188216449E+02 -0.12894252344E+03 -0.67001186818E+03  0.68854532327E+03  0.80688347641E+02 0.  0.
         25    2    1    2    0    0 -0.31144125591E+02  0.15147549318E+03  0.76819749799E+03  0.79351544408E+03  0.12499832989E+03 0.  0.
         24    2    1    2    0    0  0.26618190129E+02  0.41630378195E+02 -0.22227469198E+03  0.24166692949E+03  0.80964496423E+02 0.  0.
        -11    1    3    3    0    0  0.93090650364E+01 -0.12121309052E+03 -0.53451483166E+03  0.54816546523E+03  0.00000000000E+00 0.  1.
         12    1    3    3    0    0  0.35879151413E+02 -0.77294329215E+01 -0.13549703652E+03  0.14037985804E+03  0.00000000000E+00 0. -1.
        -13    1    5    5    0    0  0.13066924338E+02  0.64388469613E+02 -0.18168480936E+03  0.19319935167E+03  0.00000000000E+00 0.  1.
         14    1    5    5    0    0  0.13551265790E+02 -0.22758091418E+02 -0.40589882618E+02  0.48467577827E+02  0.00000000000E+00 0. -1.
          5    1    4    4  501    0  0.37349542322E+02  0.36998412667E+02  0.11115412736E+03  0.12304958708E+03  0.47000000000E+01 0.  1.
         -5    1    4    4    0  501 -0.68493667913E+02  0.11447708051E+03  0.65704337063E+03  0.67046585700E+03  0.47000000000E+01 0.  1.
          1    1    1    2  502    0  0.18517054363E+02  0.16333347904E+02  0.61997626872E+03  0.62046775366E+03  0.00000000000E+00 0. -1.
          1    1    1    2  503    0 -0.59179335350E+02 -0.80496695834E+02 -0.10099738960E+04  0.10149035335E+04  0.00000000000E+00 0. -1.
<mgrwt>
<rscale>  0 0.44941375E+02</rscale>
<asrwt>0</asrwt>
<pdfrwt beam="1">  1        2 0.20919208E+00 0.24691285E+02</pdfrwt>
<pdfrwt beam="2">  1        2 0.28479306E+00 0.81799193E+02</pdfrwt>
<totfact> 0.30506472E+01</totfact>
</mgrwt>
</event>
<event>
13    1  0.2101801E-008  0.2621424E+03  0.7546771E-02  0.1151168E+00
          2   -1    0    0  502    0  0.00000000000E+00  0.00000000000E+00  0.24298114676E+04  0.24298114676E+04  0.00000000000E+00 0. -1.
          2   -1    0    0  503    0 -0.00000000000E+00 -0.00000000000E+00 -0.45131343360E+04  0.45131343360E+04  0.00000000000E+00 0. -1.
         24    2    1    2    0    0 -0.83858786192E+02 -0.15007900282E+03 -0.43113875194E+02  0.19411007095E+03  0.79144869081E+02 0.  0.
         25    2    1    2    0    0  0.25543783865E+03 -0.46236731373E+02  0.36955723878E+03  0.46859677876E+03  0.12499625427E+03 0.  0.
         24    2    1    2    0    0 -0.14066112823E+03  0.65705594318E+02  0.72298728456E+03  0.74364263840E+03  0.78682792774E+02 0.  0.
        -13    1    5    5    0    0 -0.11672579190E+03  0.69015049433E+02  0.68726991371E+03  0.70051975120E+03  0.00000000000E+00 0.  1.
         14    1    5    5    0    0 -0.23935336337E+02 -0.33094551143E+01  0.35717370858E+02  0.43122887192E+02  0.00000000000E+00 0. -1.
        -13    1    3    3    0    0 -0.10076374516E+01 -0.82051061993E+02 -0.19231957384E+02  0.84280841786E+02  0.00000000000E+00 0.  1.
         14    1    3    3    0    0 -0.82851148740E+02 -0.68027940824E+02 -0.23881917809E+02  0.10982922916E+03  0.00000000000E+00 0. -1.
          5    1    4    4  501    0  0.20992945178E+03 -0.50195777799E+02  0.36280125592E+03  0.42218104189E+03  0.47000000000E+01 0. -1.
         -5    1    4    4    0  501  0.45508386877E+02  0.39590464261E+01  0.67559828604E+01  0.46415736869E+02  0.47000000000E+01 0. -1.
          1    1    1    2  502    0 -0.65763592380E+02 -0.13484783114E+03  0.11930846732E+04  0.12024806964E+04  0.00000000000E+00 0. -1.
          1    1    1    2  503    0  0.34845668152E+02  0.26545797101E+03 -0.43258381898E+04  0.43341156191E+04  0.00000000000E+00 0. -1.
<mgrwt>
<rscale>  0 0.19831549E+03</rscale>
<asrwt>0</asrwt>
<pdfrwt beam="1">  1        2 0.35732522E+00 0.15002929E+03</pdfrwt>
<pdfrwt beam="2">  1        2 0.66369622E+00 0.26214237E+03</pdfrwt>
<totfact> 0.21153462E-01</totfact>
</mgrwt>
</event>
<event>
13    1  0.2101801E-008  0.8923984E+02  0.7546771E-02  0.1311724E+00
         -1   -1    0    0    0  501 -0.00000000000E+00  0.00000000000E+00  0.29293065771E+03  0.29293065771E+03  0.00000000000E+00 0.  1.
          2   -1    0    0  503    0  0.00000000000E+00 -0.00000000000E+00 -0.38822633196E+04  0.38822633196E+04  0.00000000000E+00 0. -1.
         24    2    1    2    0    0  0.49207780275E+02 -0.59108941938E+01  0.11918890018E+03  0.15284305551E+03  0.81845350395E+02 0.  0.
         25    2    1    2    0    0  0.22225638940E+03 -0.24657741963E+03 -0.17055014501E+04  0.17419993194E+04  0.12501242414E+03 0.  0.
         24    2    1    2    0    0 -0.11702901623E+03  0.19082495333E+03 -0.60865460826E+03  0.65333031099E+03  0.79184023943E+02 0.  0.
        -13    1    3    3    0    0  0.68650737883E+02  0.33379024310E+01  0.65273752344E+02  0.94787805912E+02  0.00000000000E+00 0.  1.
         14    1    3    3    0    0 -0.19442957608E+02 -0.92487966249E+01  0.53915147833E+02  0.58055249594E+02  0.00000000000E+00 0. -1.
        -13    1    5    5    0    0 -0.70543186936E+02  0.17173332294E+03 -0.50720221466E+03  0.54011365654E+03  0.00000000000E+00 0.  1.
         14    1    5    5    0    0 -0.46485829297E+02  0.19091630392E+02 -0.10145239360E+03  0.11321665444E+03  0.00000000000E+00 0. -1.
          5    1    4    4  502    0  0.20006891674E+03 -0.22450948198E+03 -0.12608828196E+04  0.12962560140E+04  0.47000000000E+01 0.  1.
         -5    1    4    4    0  502  0.22187472661E+02 -0.22067937652E+02 -0.44461863041E+03  0.44574330541E+03  0.47000000000E+01 0.  1.
          1    1    1    2  503    0 -0.87839674694E+02  0.10933419790E+02 -0.14941500948E+04  0.14967698066E+04  0.00000000000E+00 0. -1.
         -2    1    1    2    0  501 -0.66595478751E+02  0.50729940707E+02  0.99784591073E+02  0.13025148479E+03  0.00000000000E+00 0.  1.
<mgrwt>
<rscale>  0 0.86434159E+02</rscale>
<asrwt>0</asrwt>
<pdfrwt beam="2">  1        2 0.57092105E+00 0.89239835E+02</pdfrwt>
<pdfrwt beam="1">  1       -1 0.43078040E-01 0.83716693E+02</pdfrwt>
<totfact> 0.56162448E+00</totfact>
</mgrwt>
</event>
<event>
13    1  0.2101801E-008  0.6296951E+02  0.7546771E-02  0.1426691E+00
          2   -1    0    0  502    0  0.00000000000E+00  0.00000000000E+00  0.85842615634E+03  0.85842615634E+03  0.00000000000E+00 0. -1.
          2   -1    0    0  503    0 -0.00000000000E+00 -0.00000000000E+00 -0.13330653675E+04  0.13330653675E+04  0.00000000000E+00 0. -1.
         24    2    1    2    0    0  0.59683437869E+01  0.12447927085E+02 -0.18245332520E+03  0.19904955256E+03  0.78364127520E+02 0.  0.
         25    2    1    2    0    0  0.13099825741E+02 -0.92691153493E+02  0.30208177743E+03  0.34006197002E+03  0.12500195130E+03 0.  0.
         24    2    1    2    0    0  0.18851106370E+02 -0.13724503066E+02  0.64632009868E+02  0.10482876632E+03  0.79171000700E+02 0.  0.
        -11    1    5    5    0    0 -0.28895803079E+02 -0.17859430381E+02  0.20481057719E+02  0.39666111662E+02  0.00000000000E+00 0.  1.
         12    1    5    5    0    0  0.47746909448E+02  0.41349273157E+01  0.44150952149E+02  0.65162654653E+02  0.00000000000E+00 0. -1.
        -13    1    3    3    0    0 -0.29294692120E+02 -0.15276841479E+02 -0.57874235531E+02  0.66640738368E+02  0.00000000000E+00 0.  1.
         14    1    3    3    0    0  0.35263035906E+02  0.27724768564E+02 -0.12457908967E+03  0.13240881420E+03  0.00000000000E+00 0. -1.
          5    1    4    4  501    0  0.12898014923E+02 -0.73415888437E+02  0.56427451299E+02  0.93607685177E+02  0.47000000000E+01 0. -1.
         -5    1    4    4    0  501  0.20181081807E+00 -0.19275265056E+02  0.24565432613E+03  0.24645428485E+03  0.47000000000E+01 0. -1.
          1    1    1    2  502    0  0.23083762290E+01  0.45617460577E+02  0.44225213662E+03  0.44460458124E+03  0.00000000000E+00 0. -1.
          1    1    1    2  503    0 -0.40227652126E+02  0.48350268897E+02 -0.11011518099E+04  0.11029466537E+04  0.00000000000E+00 0. -1.
<mgrwt>
<rscale>  0 0.53630073E+02</rscale>
<asrwt>0</asrwt>
<pdfrwt beam="1">  1        2 0.12623914E+00 0.45675829E+02</pdfrwt>
<pdfrwt beam="2">  1        2 0.19603902E+00 0.62969515E+02</pdfrwt>
<totfact> 0.11502957E+02</totfact>
</mgrwt>
</event>
<event>
13    1  0.2101801E-008  0.5274079E+02  0.7546771E-02  0.1480455E+00
         -3   -1    0    0    0  502 -0.00000000000E+00  0.00000000000E+00  0.15130178863E+04  0.15130178863E+04  0.00000000000E+00 0.  1.
         -1   -1    0    0    0  501  0.00000000000E+00 -0.00000000000E+00 -0.80657146470E+03  0.80657146470E+03  0.00000000000E+00 0.  1.
         24    2    1    2    0    0  0.91502000096E+02  0.13981963450E+02  0.92259937174E+03  0.93064426259E+03  0.79630593573E+02 0.  0.
         25    2    1    2    0    0 -0.12287975245E+03  0.65801176102E+02 -0.20680617683E+03  0.27896707195E+03  0.12499841646E+03 0.  0.
         24    2    1    2    0    0 -0.40256169884E+02 -0.31608159408E+02  0.11780648068E+03  0.15511374730E+03  0.86961329084E+02 0.  0.
        -11    1    3    3    0    0  0.70740517139E+02  0.30879276408E+02  0.40115548584E+03  0.40851373820E+03  0.00000000000E+00 0.  1.
         12    1    3    3    0    0  0.20761482957E+02 -0.16897312958E+02  0.52144388589E+03  0.52213052439E+03  0.00000000000E+00 0. -1.
        -11    1    5    5    0    0 -0.16330014265E+02  0.24998202588E+02  0.73554351569E+02  0.79384016863E+02  0.00000000000E+00 0.  1.
         12    1    5    5    0    0 -0.23926155619E+02 -0.56606361996E+02  0.44252129112E+02  0.75729730437E+02  0.00000000000E+00 0. -1.
          5    1    4    4  503    0 -0.12012709475E+03  0.14908009676E+02 -0.18954845855E+03  0.22495216333E+03  0.47000000000E+01 0.  1.
         -5    1    4    4    0  503 -0.27526577007E+01  0.50893166425E+02 -0.17257718276E+02  0.54014908621E+02  0.47000000000E+01 0.  1.
         -2    1    1    2    0  501  0.35324450521E+02 -0.10197527229E+02 -0.53871197897E+03  0.53996518652E+03  0.00000000000E+00 0.  1.
         -4    1    1    2    0  502  0.36309471717E+02 -0.37977452915E+02  0.41155872494E+03  0.41489908260E+03  0.00000000000E+00 0.  1.
<mgrwt>
<rscale>  0 0.44035398E+02</rscale>
<asrwt>0</asrwt>
<pdfrwt beam="2">  1       -1 0.11861345E+00 0.36766919E+02</pdfrwt>
<pdfrwt beam="1">  1       -3 0.22250263E+00 0.52740788E+02</pdfrwt>
<totfact> 0.43214442E-01</totfact>
</mgrwt>
</event>
<event>
13    1  0.2101801E-008  0.1553686E+03  0.7546771E-02  0.1201897E+00
          2   -1    0    0  503    0  0.00000000000E+00  0.00000000000E+00  0.27020930843E+04  0.27020930843E+04  0.00000000000E+00 0. -1.
          2   -1    0    0  502    0 -0.00000000000E+00 -0.00000000000E+00 -0.29885266389E+04  0.29885266389E+04  0.00000000000E+00 0. -1.
         24    2    1    2    0    0 -0.19316890193E+03  0.76549930564E+02 -0.88062293040E+03  0.90843213911E+03  0.81105420776E+02 0.  0.
         25    2    1    2    0    0  0.11376185289E+03 -0.21567328699E+03  0.51588416247E+03  0.58413799624E+03  0.12499601463E+03 0.  0.
         24    2    1    2    0    0  0.20406677306E+01 -0.11601780751E+03 -0.30950036709E+03  0.34188349561E+03  0.87347303076E+02 0.  0.
        -11    1    3    3    0    0 -0.50943363879E+01  0.61068213802E+01 -0.36384621418E+01  0.87455095541E+01  0.00000000000E+00 0.  1.
         12    1    3    3    0    0 -0.18807456554E+03  0.70443109184E+02 -0.87698446826E+03  0.89968662956E+03  0.00000000000E+00 0. -1.
        -13    1    5    5    0    0  0.96634743443E+01 -0.11235375409E+03 -0.18201089678E+03  0.21411379064E+03  0.00000000000E+00 0.  1.
         14    1    5    5    0    0 -0.76228066137E+01 -0.36640534219E+01 -0.12748947031E+03  0.12776970497E+03  0.00000000000E+00 0. -1.
          5    1    4    4  501    0  0.97697480880E+02 -0.60516826349E+02  0.17757877051E+03  0.21157361314E+03  0.47000000000E+01 0.  1.
         -5    1    4    4    0  501  0.16064372010E+02 -0.15515646064E+03  0.33830539196E+03  0.37256438310E+03  0.47000000000E+01 0.  1.
          1    1    1    2  502    0  0.13237322058E+03  0.11699443350E+03 -0.17270637295E+04  0.17360758891E+04  0.00000000000E+00 0. -1.
          1    1    1    2  503    0 -0.55006839267E+02  0.13814673043E+03  0.21148693099E+04  0.21200902032E+04  0.00000000000E+00 0. -1.
<mgrwt>
<rscale>  0 0.14884673E+03</rscale>
<asrwt>0</asrwt>
<pdfrwt beam="1">  1        2 0.39736663E+00 0.15536859E+03</pdfrwt>
<pdfrwt beam="2">  1        2 0.43948921E+00 0.14259865E+03</pdfrwt>
<totfact> 0.16881839E+00</totfact>
</mgrwt>
</event>
<event>
13    1  0.2101801E-008  0.1464878E+03  0.7546771E-02  0.1333774E+00
          2   -1    0    0  502    0  0.00000000000E+00  0.00000000000E+00  0.10761337159E+04  0.10761337159E+04  0.00000000000E+00 0. -1.
          2   -1    0    0  503    0 -0.00000000000E+00 -0.00000000000E+00 -0.13654489896E+04  0.13654489896E+04  0.00000000000E+00 0. -1.
         24    2    1    2    0    0 -0.10156284704E+02 -0.18052820929E+02 -0.68622262695E+03  0.69112791538E+03  0.79543995476E+02 0.  0.
         25    2    1    2    0    0  0.23170589999E+03 -0.19513375368E+03 -0.22460716998E+02  0.32847230299E+03  0.12499905643E+03 0.  0.
         24    2    1    2    0    0 -0.44366367736E+02 -0.65905999950E+00  0.77768866578E+02  0.12130513258E+03  0.81842101854E+02 0.  0.
        -11    1    3    3    0    0 -0.18018503515E+02 -0.47785191142E+02 -0.45938785511E+03  0.46221779756E+03  0.00000000000E+00 0.  1.
         12    1    3    3    0    0  0.78622188106E+01  0.29732370213E+02 -0.22683477184E+03  0.22891011781E+03  0.00000000000E+00 0. -1.
        -13    1    5    5    0    0 -0.31313173554E+02 -0.19020567275E+02  0.88916993658E+02  0.96169270449E+02  0.00000000000E+00 0.  1.
         14    1    5    5    0    0 -0.13053194183E+02  0.18361507276E+02 -0.11148127080E+02  0.25135862134E+02  0.00000000000E+00 0. -1.
          5    1    4    4  501    0  0.16492214571E+03 -0.69339496115E+02 -0.44144729282E+02  0.18433156808E+03  0.47000000000E+01 0.  1.
         -5    1    4    4    0  501  0.66783754283E+02 -0.12579425756E+03  0.21684012284E+02  0.14414073491E+03  0.47000000000E+01 0.  1.
          1    1    1    2  502    0 -0.41278745126E+02 -0.72790536463E+01  0.78541820386E+03  0.78653586974E+03  0.00000000000E+00 0. -1.
          1    1    1    2  503    0 -0.13590450243E+03  0.22112468825E+03 -0.44381900018E+03  0.51414148486E+03  0.00000000000E+00 0. -1.
<mgrwt>
<rscale>  0 0.78358953E+02</rscale>
<asrwt>0</asrwt>
<pdfrwt beam="1">  1        2 0.15825496E+00 0.41915623E+02</pdfrwt>
<pdfrwt beam="2">  1        2 0.20080132E+00 0.14648776E+03</pdfrwt>
<totfact> 0.79118419E+01</totfact>
</mgrwt>
</event>
<event>
13    1  0.2101801E-008  0.1544415E+03  0.7546771E-02  0.1281995E+00
          2   -1    0    0  502    0  0.00000000000E+00  0.00000000000E+00  0.36180842649E+03  0.36180842649E+03  0.00000000000E+00 0. -1.
          2   -1    0    0  503    0 -0.00000000000E+00 -0.00000000000E+00 -0.16285280499E+04  0.16285280499E+04  0.00000000000E+00 0. -1.
         24    2    1    2    0    0 -0.19072819498E+03  0.70681758106E+02 -0.17872401218E+03  0.28245796347E+03  0.80418115552E+02 0.  0.
         25    2    1    2    0    0  0.78102914107E+02  0.18118519073E+03  0.82060463470E+02  0.24756601528E+03  0.12500749468E+03 0.  0.
         24    2    1    2    0    0 -0.46155339799E+01 -0.70986960579E+02  0.19342812338E+02  0.10903915701E+03  0.80342651475E+02 0.  0.
        -11    1    3    3    0    0 -0.19993795395E+02  0.38828468262E+02 -0.23887725157E+02  0.49779767125E+02  0.00000000000E+00 0.  1.
         12    1    3    3    0    0 -0.17073439958E+03  0.31853289844E+02 -0.15483628702E+03  0.23267819634E+03  0.00000000000E+00 0. -1.
        -13    1    5    5    0    0 -0.25391498451E+02 -0.32103393610E+02 -0.23806555968E+02  0.47350904764E+02  0.00000000000E+00 0.  1.
         14    1    5    5    0    0  0.20775964471E+02 -0.38883566968E+02  0.43149368306E+02  0.61688252246E+02  0.00000000000E+00 0. -1.
          5    1    4    4  501    0  0.80355405989E+02  0.15054590033E+03  0.12253266600E+02  0.17115283206E+03  0.47000000000E+01 0.  1.
         -5    1    4    4    0  501 -0.22524918825E+01  0.30639290393E+02  0.69807196870E+02  0.76413183223E+02  0.47000000000E+01 0.  1.
          1    1    1    2  502    0  0.31924176626E+02 -0.55137761571E+02  0.63052408016E+02  0.89637781995E+02  0.00000000000E+00 0. -1.
          1    1    1    2  503    0  0.85316638224E+02 -0.12574222668E+03 -0.12524512951E+04  0.12616355587E+04  0.00000000000E+00 0. -1.
<mgrwt>
<rscale>  0 0.99196301E+02</rscale>
<asrwt>0</asrwt>
<pdfrwt beam="1">  1        2 0.53207120E-01 0.63712839E+02</pdfrwt>
<pdfrwt beam="2">  1        2 0.23948942E+00 0.15444150E+03</pdfrwt>
<totfact> 0.19400851E+02</totfact>
</mgrwt>
</event>
<event>
13    1  0.2101801E-008  0.2325709E+03  0.7546771E-02  0.1222957E+00
         -1   -1    0    0    0  501 -0.00000000000E+00  0.00000000000E+00  0.23016007020E+04  0.23016007020E+04  0.00000000000E+00 0.  1.
          4   -1    0    0  503    0  0.00000000000E+00 -0.00000000000E+00 -0.82308576920E+03  0.82308576920E+03  0.00000000000E+00 0. -1.
         24    2    1    2    0    0 -0.61164344172E+02 -0.20450955686E+03  0.13370105262E+04  0.13563322026E+04  0.80465276635E+02 0.  0.
         25    2    1    2    0    0 -0.63107876853E+02 -0.10004018867E+03 -0.55791527485E+03  0.58385353944E+03  0.12499943253E+03 0.  0.
         24    2    1    2    0    0  0.14391514177E+03  0.43485391247E+02  0.17565914382E+03  0.24547450856E+03  0.82456365801E+02 0.  0.
        -11    1    3    3    0    0  0.69336726721E+01 -0.11173167545E+01  0.14553785059E+03  0.14570720699E+03  0.00000000000E+00 0.  1.
         12    1    3    3    0    0 -0.68098016844E+02 -0.20339224011E+03  0.11914726757E+04  0.12106249956E+04  0.00000000000E+00 0. -1.
        -13    1    5    5    0    0  0.67092654950E+01 -0.26114905519E+01  0.59367414152E+02  0.59802374447E+02  0.00000000000E+00 0.  1.
         14    1    5    5    0    0  0.13720587628E+03  0.46096881799E+02  0.11629172967E+03  0.18567213411E+03  0.00000000000E+00 0. -1.
          5    1    4    4  502    0 -0.90689043972E+02 -0.10307572051E+03 -0.38748617959E+03  0.41111645093E+03  0.47000000000E+01 0.  1.
         -5    1    4    4    0  502  0.27581167119E+02  0.30355318445E+01 -0.17042909526E+03  0.17273708850E+03  0.47000000000E+01 0.  1.
          3    1    1    2  503    0  0.75481993900E+02  0.10060354581E+02 -0.17480123602E+03  0.19066781127E+03  0.00000000000E+00 0. -1.
         -2    1    1    2    0  501 -0.95124914646E+02  0.25100399970E+03  0.69856177360E+03  0.74835840931E+03  0.00000000000E+00 0.  1.
<mgrwt>
<rscale>  0 0.13307951E+03</rscale>
<asrwt>0</asrwt>
<pdfrwt beam="2">  1        4 0.12104203E+00 0.76149472E+02</pdfrwt>
<pdfrwt beam="1">  1       -1 0.33847069E+00 0.23257095E+03</pdfrwt>
<totfact> 0.46618335E-02</totfact>
</mgrwt>
</event>
<event>
13    1  0.2101801E-008  0.7424610E+02  0.7546771E-02  0.1397811E+00
          2   -1    0    0  503    0  0.00000000000E+00  0.00000000000E+00  0.55219023864E+04  0.55219023864E+04  0.00000000000E+00 0. -1.
          2   -1    0    0  502    0 -0.00000000000E+00 -0.00000000000E+00 -0.87739259526E+03  0.87739259526E+03  0.00000000000E+00 0. -1.
         24    2    1    2    0    0 -0.48015658186E+03  0.53255520344E+02  0.10891766424E+04  0.11942220758E+04  0.80461882909E+02 0.  0.
         25    2    1    2    0    0  0.10044246067E+03 -0.97391552995E+02  0.11892391049E+03  0.22212970967E+03  0.12499963572E+03 0.  0.
         24    2    1    2    0    0  0.40651578395E+03  0.42870417810E+02  0.35005685207E+04  0.35256889215E+04  0.97002309806E+02 0.  0.
        -11    1    5    5    0    0  0.18840157991E+03 -0.24680649908E+02  0.14300765516E+04  0.14426445277E+04  0.00000000000E+00 0.  1.
         12    1    5    5    0    0  0.21811420405E+03  0.67551067717E+02  0.20704919691E+04  0.20830443939E+04  0.00000000000E+00 0. -1.
        -13    1    3    3    0    0 -0.25636777984E+03 -0.98913001221E+00  0.50626446083E+03  0.56747609749E+03  0.00000000000E+00 0.  1.
         14    1    3    3    0    0 -0.22378880202E+03  0.54244650356E+02  0.58291218154E+03  0.62674597836E+03  0.00000000000E+00 0. -1.
          5    1    4    4  501    0  0.56366528149E+02 -0.12397331400E+02 -0.12717987692E+02  0.59285044761E+02  0.47000000000E+01 0.  1.
         -5    1    4    4    0  501  0.44075932520E+02 -0.84994221595E+02  0.13164189818E+03  0.16284466491E+03  0.47000000000E+01 0.  1.
          1    1    1    2  502    0  0.47335432534E+02 -0.10543858509E+02 -0.75790680517E+03  0.75945674100E+03  0.00000000000E+00 0. -1.
          1    1    1    2  503    0 -0.74137095297E+02  0.11809473350E+02  0.69374752277E+03  0.69779753361E+03  0.00000000000E+00 0. -1.
<mgrwt>
<rscale>  0 0.60005030E+02</rscale>
<asrwt>0</asrwt>
<pdfrwt beam="1">  1        2 0.81204445E+00 0.74246097E+02</pdfrwt>
<pdfrwt beam="2">  1        2 0.12902833E+00 0.48495527E+02</pdfrwt>
<totfact> 0.18001152E-01</totfact>
</mgrwt>
</event>
<event>
13    1  0.2101801E-008  0.1738361E+03  0.7546771E-02  0.1225147E+00
          2   -1    0    0  502    0  0.00000000000E+00  0.00000000000E+00  0.11399178149E+04  0.11399178149E+04  0.00000000000E+00 0. -1.
          2   -1    0    0  503    0 -0.00000000000E+00 -0.00000000000E+00 -0.29935289063E+04  0.29935289063E+04  0.00000000000E+00 0. -1.
         24    2    1    2    0    0  0.16855392060E+03 -0.40943799660E+02 -0.27635869937E+03  0.33598745799E+03  0.80166216902E+02 0.  0.
         25    2    1    2    0    0 -0.99636839772E+01  0.21907116370E+03  0.17222323796E+03  0.30557685163E+03  0.12499967518E+03 0.  0.
         24    2    1    2    0    0 -0.27287897143E+02 -0.27419390808E+02 -0.31419733945E+03  0.32871829853E+03  0.88539817851E+02 0.  0.
        -11    1    3    3    0    0  0.22237265132E+02 -0.29473162516E+02 -0.99702513987E+02  0.10631911665E+03  0.00000000000E+00 0.  1.
         12    1    3    3    0    0  0.14631665547E+03 -0.11470637144E+02 -0.17665618538E+03  0.22966834135E+03  0.00000000000E+00 0. -1.
        -11    1    5    5    0    0 -0.56403001976E+02 -0.31144242310E+02 -0.24930757079E+03  0.25749859672E+03  0.00000000000E+00 0.  1.
         12    1    5    5    0    0  0.29115104833E+02  0.37248515023E+01 -0.64889768663E+02  0.71219701805E+02  0.00000000000E+00 0. -1.
          5    1    4    4  501    0  0.49849557361E+02  0.16204858689E+03  0.11315438977E+03  0.20388901100E+03  0.47000000000E+01 0. -1.
         -5    1    4    4    0  501 -0.59813241338E+02  0.57022576808E+02  0.59068848189E+02  0.10168784063E+03  0.47000000000E+01 0. -1.
          1    1    1    2  502    0  0.91940738556E+02  0.38344339079E+02  0.85172316886E+03  0.85752885906E+03  0.00000000000E+00 0. -1.
          1    1    1    2  503    0 -0.22324307803E+03 -0.18905231231E+03 -0.22870014594E+04  0.23056352539E+04  0.00000000000E+00 0. -1.
<mgrwt>
<rscale>  0 0.13156803E+03</rscale>
<asrwt>0</asrwt>
<pdfrwt beam="1">  1        2 0.16763497E+00 0.99577377E+02</pdfrwt>
<pdfrwt beam="2">  1        2 0.44022484E+00 0.17383614E+03</pdfrwt>
<totfact> 0.10269449E+01</totfact>
</mgrwt>
</event>
<event>
13    1  0.2101801E-008  0.1044169E+03  0.7546771E-02  0.1360501E+00
          2   -1    0    0  502    0  0.00000000000E+00  0.00000000000E+00  0.26187191944E+04  0.26187191944E+04  0.00000000000E+00 0. -1.
          4   -1    0    0  503    0 -0.00000000000E+00 -0.00000000000E+00 -0.42844569721E+03  0.42844569721E+03  0.00000000000E+00 0. -1.
         24    2    1    2    0    0 -0.19383348853E+02  0.12842697815E+03 -0.14904899484E+03  0.21324906111E+03  0.79939703974E+02 0.  0.
         25    2    1    2    0    0 -0.51691103245E+02 -0.97948812595E+02  0.41818086157E+03  0.45029606893E+03  0.12500150663E+03 0.  0.
         24    2    1    2    0    0 -0.18981361709E+02 -0.25369489247E+01 -0.85544372748E+02  0.10399413414E+03  0.55948297789E+02 0.  0.
        -13    1    5    5    0    0  0.16822955034E+01 -0.26924048538E+02 -0.34982304874E+02  0.44175741783E+02  0.00000000000E+00 0.  1.
         14    1    5    5    0    0 -0.20663657212E+02  0.24387099614E+02 -0.50562067874E+02  0.59818392361E+02  0.00000000000E+00 0. -1.
        -13    1    3    3    0    0 -0.44173856467E+02  0.46752053440E+02 -0.44165026991E+02  0.78023289505E+02  0.00000000000E+00 0.  1.
         14    1    3    3    0    0  0.24790507614E+02  0.81674924712E+02 -0.10488396785E+03  0.13522577160E+03  0.00000000000E+00 0. -1.
          5    1    4    4  501    0 -0.37580462892E+02 -0.12799441115E+03  0.33502077924E+03  0.36063260113E+03  0.47000000000E+01 0. -1.
         -5    1    4    4    0  501 -0.14110640353E+02  0.30045598551E+02  0.83160082333E+02  0.89663467795E+02  0.47000000000E+01 0. -1.
          1    1    1    2  502    0  0.10329570756E+03  0.16912295574E+02  0.21378308021E+04  0.21403916855E+04  0.00000000000E+00 0. -1.
          3    1    1    2  503    0 -0.13239893755E+02 -0.44853512207E+02 -0.13114479883E+03  0.13923394199E+03  0.00000000000E+00 0. -1.
<mgrwt>
<rscale>  0 0.69880194E+02</rscale>
<asrwt>0</asrwt>
<pdfrwt beam="1">  1        2 0.38510576E+00 0.10441687E+03</pdfrwt>
<pdfrwt beam="2">  1        4 0.63006721E-01 0.46766787E+02</pdfrwt>
<totfact> 0.51519426E+00</totfact>
</mgrwt>
</event>
<event>
13    1  0.2101801E-008  0.1836250E+03  0.7546771E-02  0.1249299E+00
          2   -1    0    0  503    0  0.00000000000E+00  0.00000000000E+00  0.14721477708E+04  0.14721477708E+04  0.00000000000E+00 0. -1.
          2   -1    0    0  502    0 -0.00000000000E+00 -0.00000000000E+00 -0.21160798959E+04  0.21160798959E+04  0.00000000000E+00 0. -1.
         24    2    1    2    0    0 -0.38782095265E+02 -0.14882362895E+03 -0.10607671825E+04  0.10748460657E+04  0.80090736713E+02 0.  0.
         25    2    1    2    0    0 -0.11149097253E+03 -0.88509758842E+02 -0.39440625290E+03  0.43754155537E+03  0.12498842339E+03 0.  0.
         24    2    1    2    0    0  0.46091158634E+02  0.64370460581E+02  0.18860678835E+03  0.22070343196E+03  0.82882646952E+02 0.  0.
        -13    1    5    5    0    0 -0.55028540352E+01 -0.12847781576E+02  0.48180551608E+01  0.14783793474E+02  0.00000000000E+00 0.  1.
         14    1    5    5    0    0  0.51594012669E+02  0.77218242157E+02  0.18378873319E+03  0.20591963848E+03  0.00000000000E+00 0. -1.
        -13    1    3    3    0    0 -0.52184106857E+02 -0.51353222901E+02 -0.37783459778E+03  0.38486272591E+03  0.00000000000E+00 0.  1.
         14    1    3    3    0    0  0.13402011592E+02 -0.97470406054E+02 -0.68293258469E+03  0.68998333980E+03  0.00000000000E+00 0. -1.
          5    1    4    4  501    0 -0.79346305678E+02  0.15053079646E+02 -0.16833457086E+03  0.18676468933E+03  0.47000000000E+01 0. -1.
         -5    1    4    4    0  501 -0.32144666848E+02 -0.10356283849E+03 -0.22607168204E+03  0.25077686604E+03  0.47000000000E+01 0. -1.
          1    1    1    2  502    0  0.55758962795E+02 -0.48164891422E+02 -0.60365186196E+03  0.60813196688E+03  0.00000000000E+00 0. -1.
          1    1    1    2  503    0  0.48422946363E+02  0.22112781864E+03  0.12262863839E+04  0.12470046469E+04  0.00000000000E+00 0. -1.
<mgrwt>
<rscale>  0 0.11631727E+03</rscale>
<asrwt>0</asrwt>
<pdfrwt beam="1">  1        2 0.21649232E+00 0.18362496E+03</pdfrwt>
<pdfrwt beam="2">  1        2 0.31118822E+00 0.73681196E+02</pdfrwt>
<totfact> 0.20523173E+01</totfact>
</mgrwt>
</event>
<event>
13    1  0.2101801E-008  0.3083376E+03  0.7546771E-02  0.1150817E+00
          2   -1    0    0  502    0  0.00000000000E+00  0.00000000000E+00  0.35270537119E+03  0.35270537119E+03  0.00000000000E+00 0. -1.
          2   -1    0    0  503    0 -0.00000000000E+00 -0.00000000000E+00 -0.25580220109E+04  0.25580220109E+04  0.00000000000E+00 0. -1.
         24    2    1    2    0    0  0.20222892793E+03 -0.12162926477E+03 -0.10178959593E+03  0.26958272553E+03  0.81384929351E+02 0.  0.
         25    2    1    2    0    0  0.29830687111E+03 -0.13187693000E+03 -0.15908582240E+03  0.38382069510E+03  0.12502604960E+03 0.  0.
         24    2    1    2    0    0 -0.20239944028E+03 -0.24519055585E+02 -0.23158687436E+03  0.31895261150E+03  0.80818132199E+02 0.  0.
        -11    1    5    5    0    0 -0.48153871590E+02  0.13978159445E+02 -0.19279654814E+02  0.53720474499E+02  0.00000000000E+00 0.  1.
         12    1    5    5    0    0 -0.15424556869E+03 -0.38497215030E+02 -0.21230721954E+03  0.26523213700E+03  0.00000000000E+00 0. -1.
        -13    1    3    3    0    0  0.16000027166E+03 -0.82422901273E+02 -0.38619240529E+02  0.18407897035E+03  0.00000000000E+00 0.  1.
         14    1    3    3    0    0  0.42228656273E+02 -0.39206363500E+02 -0.63170355404E+02  0.85503755188E+02  0.00000000000E+00 0. -1.
          5    1    4    4  501    0  0.14598712553E+03 -0.28890808079E+02 -0.12989668342E+03  0.19759088536E+03  0.47000000000E+01 0. -1.
         -5    1    4    4    0  501  0.15231974558E+03 -0.10298612192E+03 -0.29189138980E+02  0.18622980974E+03  0.47000000000E+01 0. -1.
          1    1    1    2  502    0 -0.12142832026E+03  0.40746104675E+02  0.59689160879E+02  0.14130774195E+03  0.00000000000E+00 0. -1.
          1    1    1    2  503    0 -0.17670803849E+03  0.23727914568E+03 -0.17725435079E+04  0.17970636081E+04  0.00000000000E+00 0. -1.
<mgrwt>
<rscale>  0 0.19872744E+03</rscale>
<asrwt>0</asrwt>
<pdfrwt beam="1">  1        2 0.51868438E-01 0.12808233E+03</pdfrwt>
<pdfrwt beam="2">  1        2 0.37617970E+00 0.30833759E+03</pdfrwt>
<totfact> 0.63518342E+01</totfact>
</mgrwt>
</event>
<event>
13    1  0.2101801E-008  0.1804710E+03  0.7546771E-02  0.1243300E+00
          2   -1    0    0  503    0  0.00000000000E+00  0.00000000000E+00  0.18639605208E+04  0.18639605208E+04  0.00000000000E+00 0. -1.
          2   -1    0    0  502    0 -0.00000000000E+00 -0.00000000000E+00 -0.67883695613E+03  0.67883695613E+03  0.00000000000E+00 0. -1.
         24    2    1    2    0    0  0.11369946351E+03  0.13658753106E+03  0.83433663115E+02  0.21283554800E+03  0.82183165605E+02 0.  0.
         25    2    1    2    0    0  0.11081615042E+03  0.35245574847E+02  0.69724733689E+03  0.71784382543E+03  0.12499375649E+03 0.  0.
         24    2    1    2    0    0 -0.97247976038E+02  0.70365002430E+02 -0.35976833193E+02  0.15158130096E+03  0.85288661981E+02 0.  0.
        -11    1    3    3    0    0  0.10052176601E+03  0.63216446330E+02  0.34474232281E+02  0.12365038302E+03  0.00000000000E+00 0.  1.
         12    1    3    3    0    0  0.13177697499E+02  0.73371084732E+02  0.48959430834E+02  0.89185164987E+02  0.00000000000E+00 0. -1.
        -13    1    5    5    0    0 -0.68900221275E+02  0.20924561532E+00 -0.27902820384E+01  0.68957015229E+02  0.00000000000E+00 0.  1.
         14    1    5    5    0    0 -0.28347754763E+02  0.70155756814E+02 -0.33186551154E+02  0.82624285727E+02  0.00000000000E+00 0. -1.
          5    1    4    4  501    0  0.21376092595E+02 -0.25970778614E+02  0.43661836758E+02  0.55316043473E+02  0.47000000000E+01 0.  1.
         -5    1    4    4    0  501  0.89440057830E+02  0.61216353461E+02  0.65358550014E+03  0.66252778196E+03  0.47000000000E+01 0.  1.
          1    1    1    2  502    0 -0.15472946888E+03 -0.16745523105E+03 -0.48278028661E+03  0.53390941936E+03  0.00000000000E+00 0. -1.
          1    1    1    2  503    0  0.27461830979E+02 -0.74742877293E+02  0.92319968449E+03  0.92662738321E+03  0.00000000000E+00 0. -1.
<mgrwt>
<rscale>  0 0.11987735E+03</rscale>
<asrwt>0</asrwt>
<pdfrwt beam="1">  1        2 0.27411184E+00 0.79628198E+02</pdfrwt>
<pdfrwt beam="2">  1        2 0.99828964E-01 0.18047098E+03</pdfrwt>
<totfact> 0.78843714E+01</totfact>
</mgrwt>
</event>
<event>
13    1  0.2101801E-008  0.9288251E+02  0.7546771E-02  0.1337614E+00
          2   -1    0    0  503    0  0.00000000000E+00  0.00000000000E+00  0.30912503315E+04  0.30912503315E+04  0.00000000000E+00 0. -1.
          2   -1    0    0  502    0 -0.00000000000E+00 -0.00000000000E+00 -0.11654291245E+04  0.11654291245E+04  0.00000000000E+00 0. -1.
         24    2    1    2    0    0  0.65386487111E+01 -0.16216735243E+02 -0.32886149024E+03  0.33972077712E+03  0.83394185751E+02 0.  0.
         25    2    1    2    0    0  0.16266617448E+02  0.19209159081E+03  0.52475241629E+03  0.57284821282E+03  0.12500477761E+03 0.  0.
         24    2    1    2    0    0  0.36687530449E+02 -0.43161479309E+02  0.79480865334E+03  0.80085877742E+03  0.80281366189E+02 0.  0.
        -11    1    3    3    0    0  0.15332850277E+02 -0.47723588018E+02 -0.15815791046E+03  0.16591130700E+03  0.00000000000E+00 0.  1.
         12    1    3    3    0    0 -0.87942015658E+01  0.31506852775E+02 -0.17070357978E+03  0.17380947011E+03  0.00000000000E+00 0. -1.
        -13    1    5    5    0    0  0.27337350094E+02 -0.61228476401E+02  0.72642919400E+03  0.72951739591E+03  0.00000000000E+00 0.  1.
         14    1    5    5    0    0  0.93501803546E+01  0.18066997092E+02  0.68379459338E+02  0.71341381511E+02  0.00000000000E+00 0. -1.
          5    1    4    4  501    0 -0.26607073581E+02  0.13779888459E+03  0.22534323159E+03  0.26551484136E+03  0.47000000000E+01 0.  1.
         -5    1    4    4    0  501  0.42873691029E+02  0.54292706223E+02  0.29940918470E+03  0.30733337146E+03  0.47000000000E+01 0.  1.
          1    1    1    2  502    0 -0.17392594379E+02 -0.84603556738E+02 -0.80115551622E+03  0.80579800528E+03  0.00000000000E+00 0. -1.
          1    1    1    2  503    0 -0.42100202228E+02 -0.48109819522E+02  0.17362771438E+04  0.17374536833E+04  0.00000000000E+00 0. -1.
<mgrwt>
<rscale>  0 0.77057986E+02</rscale>
<asrwt>0</asrwt>
<pdfrwt beam="1">  1        2 0.45459563E+00 0.63929506E+02</pdfrwt>
<pdfrwt beam="2">  1        2 0.17138664E+00 0.92882514E+02</pdfrwt>
<totfact> 0.10340351E+01</totfact>
</mgrwt>
</event>
<event>
13    1  0.2101801E-008  0.5594091E+02  0.7546771E-02  0.1552673E+00
          2   -1    0    0  502    0  0.00000000000E+00  0.00000000000E+00  0.26387829186E+03  0.26387829186E+03  0.00000000000E+00 0. -1.
          2   -1    0    0  503    0 -0.00000000000E+00 -0.00000000000E+00 -0.25908199420E+04  0.25908199420E+04  0.00000000000E+00 0. -1.
         24    2    1    2    0    0 -0.14472686606E+03 -0.30573544800E+03 -0.18159730384E+04  0.18488032914E+04  0.76782187420E+02 0.  0.
         25    2    1    2    0    0  0.22576178355E+03  0.22881531819E+03 -0.14382318608E+03  0.37367840489E+03  0.12500243468E+03 0.  0.
         24    2    1    2    0    0 -0.10518005886E+03  0.46255388103E+02  0.19302246825E+02  0.14170901672E+03  0.80662649198E+02 0.  0.
        -13    1    3    3    0    0 -0.11671716937E+03 -0.15810874074E+03 -0.10091464520E+04  0.10281039991E+04  0.00000000000E+00 0.  1.
         14    1    3    3    0    0 -0.28009696696E+02 -0.14762670726E+03 -0.80682658643E+03  0.82069929230E+03  0.00000000000E+00 0. -1.
        -13    1    5    5    0    0 -0.10338235218E+03  0.46458806538E+02 -0.86751635463E+01  0.11367317146E+03  0.00000000000E+00 0.  1.
         14    1    5    5    0    0 -0.17977066866E+01 -0.20341843565E+00  0.27977410372E+02  0.28035845261E+02  0.00000000000E+00 0. -1.
          5    1    4    4  501    0 -0.10018815178E+02  0.19121888386E+02  0.79829433149E+01  0.23491288960E+02  0.47000000000E+01 0. -1.
         -5    1    4    4    0  501  0.23578059873E+03  0.20969342981E+03 -0.15180612940E+03  0.35018711593E+03  0.47000000000E+01 0. -1.
          1    1    1    2  502    0  0.45353589649E+02  0.32969023579E+02  0.36576455936E+02  0.66945811957E+02  0.00000000000E+00 0. -1.
          1    1    1    2  503    0 -0.21208448279E+02 -0.23042818776E+01 -0.42302412839E+03  0.42356170884E+03  0.00000000000E+00 0. -1.
<mgrwt>
<rscale>  0 0.34545651E+02</rscale>
<asrwt>0</asrwt>
<pdfrwt beam="1">  1        2 0.38805633E-01 0.55940911E+02</pdfrwt>
<pdfrwt beam="2">  1        2 0.38100291E+00 0.21333260E+02</pdfrwt>
<totfact> 0.11891233E+02</totfact>
</mgrwt>
</event>
<event>
13    1  0.2101801E-008  0.1540729E+03  0.7546771E-02  0.1199119E+00
          2   -1    0    0  502    0  0.00000000000E+00  0.00000000000E+00  0.33140841640E+04  0.33140841640E+04  0.00000000000E+00 0. -1.
          2   -1    0    0  503    0 -0.00000000000E+00 -0.00000000000E+00 -0.12808298385E+04  0.12808298385E+04  0.00000000000E+00 0. -1.
         24    2    1    2    0    0  0.22831490443E+03  0.38478937195E+02 -0.33926207434E+02  0.24371932715E+03  0.68116067715E+02 0.  0.
         25    2    1    2    0    0 -0.85546963695E+02 -0.17867874650E+03 -0.98008845102E+02  0.25391847049E+03  0.12499791395E+03 0.  0.
         24    2    1    2    0    0 -0.17845062617E+03  0.37650314433E+03  0.10629887202E+04  0.11445550081E+04  0.80385966678E+02 0.  0.
        -13    1    5    5    0    0 -0.10721188855E+03  0.24082863289E+03  0.56400153945E+03  0.62256771196E+03  0.00000000000E+00 0.  1.
         14    1    5    5    0    0 -0.71238737619E+02  0.13567451144E+03  0.49898718074E+03  0.52198729614E+03  0.00000000000E+00 0. -1.
        -13    1    3    3    0    0  0.11036145085E+03  0.52870128027E+02 -0.12968973154E+02  0.12305728152E+03  0.00000000000E+00 0.  1.
         14    1    3    3    0    0  0.11795345358E+03 -0.14391190832E+02 -0.20957234280E+02  0.12066204562E+03  0.00000000000E+00 0. -1.
          5    1    4    4  501    0 -0.96466177102E+02 -0.11697748287E+03 -0.11319426772E+03  0.18927357731E+03  0.47000000000E+01 0. -1.
         -5    1    4    4    0  501  0.10919213407E+02 -0.61701263624E+02  0.15185422620E+02  0.64644893181E+02  0.47000000000E+01 0. -1.
          1    1    1    2  502    0 -0.74022638490E+02 -0.12838783342E+03  0.20183268480E+04  0.20237603742E+04  0.00000000000E+00 0. -1.
          1    1    1    2  503    0  0.10970532392E+03 -0.10791550161E+03 -0.91612619016E+03  0.92896082258E+03  0.00000000000E+00 0. -1.
<mgrwt>
<rscale>  0 0.15110717E+03</rscale>
<asrwt>0</asrwt>
<pdfrwt beam="1">  1        2 0.48736532E+00 0.14819847E+03</pdfrwt>
<pdfrwt beam="2">  1        2 0.18835733E+00 0.15407295E+03</pdfrwt>
<totfact> 0.57094324E+00</totfact>
</mgrwt>
</event>
<event>
13    1  0.2101801E-008  0.5776279E+02  0.7546771E-02  0.1539406E+00
          2   -1    0    0  503    0  0.00000000000E+00  0.00000000000E+00  0.19249721973E+04  0.19249721973E+04  0.00000000000E+00 0. -1.
          2   -1    0    0  502    0 -0.00000000000E+00 -0.00000000000E+00 -0.24065977711E+04  0.24065977711E+04  0.00000000000E+00 0. -1.
         24    2    1    2    0    0 -0.84565498808E+02  0.12607317606E+03 -0.66631230031E+03  0.68793311284E+03  0.78956423997E+02 0.  0.
         25    2    1    2    0    0 -0.84492008838E+03  0.18391989995E+03  0.64103721725E+03  0.10836389875E+04  0.12501302346E+03 0.  0.
         24    2    1    2    0    0  0.91699052054E+03 -0.24484747415E+03 -0.89230904165E+03  0.13045671450E+04  0.69700141154E+02 0.  0.
        -11    1    5    5    0    0  0.18261555460E+03 -0.47692406073E+02 -0.21705083865E+03  0.28763531240E+03  0.00000000000E+00 0.  1.
         12    1    5    5    0    0  0.73437496594E+03 -0.19715506808E+03 -0.67525820300E+03  0.10169318326E+04  0.00000000000E+00 0. -1.
        -13    1    3    3    0    0  0.43135441214E+00  0.43390775595E+02 -0.94946689584E+02  0.10439262108E+03  0.00000000000E+00 0.  1.
         14    1    3    3    0    0 -0.84996853221E+02  0.82682400462E+02 -0.57136561073E+03  0.58354049176E+03  0.00000000000E+00 0. -1.
          5    1    4    4  501    0 -0.19710333375E+03  0.90263974511E+02  0.19426878734E+03  0.29113529673E+03  0.47000000000E+01 0. -1.
         -5    1    4    4    0  501 -0.64781675463E+03  0.93655925435E+02  0.44676842992E+03  0.79250369079E+03  0.47000000000E+01 0. -1.
          1    1    1    2  502    0 -0.16571584581E+02 -0.15231729935E+02 -0.40843961312E+03  0.40905933625E+03  0.00000000000E+00 0. -1.
          1    1    1    2  503    0  0.29066651225E+02 -0.49913871920E+02  0.84439816410E+03  0.84637138678E+03  0.00000000000E+00 0. -1.
<mgrwt>
<rscale>  0 0.36057475E+02</rscale>
<asrwt>0</asrwt>
<pdfrwt beam="1">  1        2 0.28308415E+00 0.57762792E+02</pdfrwt>
<pdfrwt beam="2">  1        2 0.35391144E+00 0.22508288E+02</pdfrwt>
<totfact> 0.11717206E+01</totfact>
</mgrwt>
</event>
<event>
13    1  0.2101801E-008  0.1128456E+03  0.7546771E-02  0.1298793E+00
          2   -1    0    0  502    0  0.00000000000E+00  0.00000000000E+00  0.30478666412E+04  0.30478666412E+04  0.00000000000E+00 0. -1.
          2   -1    0    0  503    0 -0.00000000000E+00 -0.00000000000E+00 -0.74450471169E+03  0.74450471169E+03  0.00000000000E+00 0. -1.
         24    2    1    2    0    0  0.26646516849E+02 -0.77123386454E+02 -0.29983500125E+02  0.11835928499E+03  0.80323449044E+02 0.  0.
         25    2    1    2    0    0  0.80205330728E+02 -0.66797523865E+02  0.48433564103E+03  0.51097810364E+03  0.12499121951E+03 0.  0.
         24    2    1    2    0    0 -0.68200981141E+02 -0.10606444388E+03 -0.69783434698E-02  0.14931091180E+03  0.79954413571E+02 0.  0.
        -11    1    5    5    0    0 -0.36757963303E+02 -0.82640967370E+01 -0.22861014153E+02  0.44068913410E+02  0.00000000000E+00 0.  1.
         12    1    5    5    0    0 -0.31443017838E+02 -0.97800347144E+02  0.22854035810E+02  0.10524199839E+03  0.00000000000E+00 0. -1.
        -13    1    3    3    0    0  0.49754927611E+02 -0.27652042480E+02 -0.28684370086E+02  0.63741519923E+02  0.00000000000E+00 0.  1.
         14    1    3    3    0    0 -0.23108410762E+02 -0.49471343974E+02 -0.12991300392E+01  0.54617765071E+02  0.00000000000E+00 0. -1.
          5    1    4    4  501    0  0.54577949508E+02  0.29794424070E+02  0.16802067249E+03  0.17921913030E+03  0.47000000000E+01 0.  1.
         -5    1    4    4    0  501  0.25627381220E+02 -0.96591947935E+02  0.31631496854E+03  0.33175897335E+03  0.47000000000E+01 0.  1.
          1    1    1    2  502    0 -0.28899847190E+01  0.74455824117E+02  0.24170064130E+04  0.24181546729E+04  0.00000000000E+00 0. -1.
          1    1    1    2  503    0 -0.35760881717E+02  0.17552953008E+03 -0.56798964609E+03  0.59556837949E+03  0.00000000000E+00 0. -1.
<mgrwt>
<rscale>  0 0.91697011E+02</rscale>
<asrwt>0</asrwt>
<pdfrwt beam="1">  1        2 0.44821568E+00 0.74511890E+02</pdfrwt>
<pdfrwt beam="2">  1        2 0.10948599E+00 0.11284564E+03</pdfrwt>
<totfact> 0.18807569E+01</totfact>
</mgrwt>
</event>
<event>
13    1  0.2727770E-008  0.1302170E+03  0.7546771E-02  0.1397969E+00
          2   -1    0    0  502    0  0.00000000000E+00  0.00000000000E+00  0.11981108079E+04  0.11981108079E+04  0.00000000000E+00 0. -1.
          2   -1    0    0  503    0 -0.00000000000E+00 -0.00000000000E+00 -0.22217499686E+04  0.22217499686E+04  0.00000000000E+00 0. -1.
         24    2    1    2    0    0  0.70371138096E+02 -0.13614617565E+03  0.12114837576E+03  0.21136587568E+03  0.80689071319E+02 0.  0.
         25    2    1    2    0    0 -0.41239712048E+02  0.25264215393E+03 -0.50909618350E+03  0.58339259044E+03  0.12505686204E+03 0.  0.
         24    2    1    2    0    0 -0.72429752864E+01  0.14563795401E+02 -0.66259606834E+02  0.10583649704E+03  0.80910220500E+02 0.  0.
        -11    1    3    3    0    0 -0.90032309634E+01 -0.31093367154E+02 -0.10698665641E+00  0.32370775322E+02  0.00000000000E+00 0.  1.
         12    1    3    3    0    0  0.79374369060E+02 -0.10505280850E+03  0.12125536242E+03  0.17899510036E+03  0.00000000000E+00 0. -1.
        -13    1    5    5    0    0 -0.37929000278E+02  0.27748577051E+02 -0.26652494467E+02  0.54027289880E+02  0.00000000000E+00 0.  1.
         14    1    5    5    0    0  0.30686024992E+02 -0.13184781650E+02 -0.39607112367E+02  0.51809207164E+02  0.00000000000E+00 0. -1.
          5    1    4    4  501    0 -0.46567557065E+02  0.11854379177E+03 -0.36411492413E+03  0.38577575859E+03  0.47000000000E+01 0.  1.
         -5    1    4    4    0  501  0.53278450174E+01  0.13409836216E+03 -0.14498125936E+03  0.19761683186E+03  0.47000000000E+01 0.  1.
          1    1    1    2  502    0 -0.47704256282E+02 -0.12125240236E+03  0.97043901192E+03  0.97914744396E+03  0.00000000000E+00 0. -1.
          1    1    1    2  503    0  0.25815805520E+02 -0.98073713169E+01 -0.15398707580E+04  0.15401183694E+04  0.00000000000E+00 0. -1.
<mgrwt>
<rscale>  0 0.59967212E+02</rscale>
<asrwt>0</asrwt>
<pdfrwt beam="1">  1        2 0.17619277E+00 0.13021704E+03</pdfrwt>
<pdfrwt beam="2">  1        2 0.32672793E+00 0.27615944E+02</pdfrwt>
<totfact> 0.29449064E+01</totfact>
</mgrwt>
</event>
<event>
13    1  0.2101801E-008  0.1127137E+03  0.7546771E-02  0.1344086E+00
         -1   -1    0    0    0  501 -0.00000000000E+00  0.00000000000E+00  0.65753611815E+03  0.65753611815E+03  0.00000000000E+00 0.  1.
          2   -1    0    0  503    0  0.00000000000E+00 -0.00000000000E+00 -0.25793199394E+04  0.25793199394E+04  0.00000000000E+00 0. -1.
         24    2    1    2    0    0  0.16043562904E+02  0.90119905573E+02  0.23586553828E+02  0.12457918746E+03  0.81145887976E+02 0.  0.
         25    2    1    2    0    0 -0.20538575298E+03  0.17037392329E+03 -0.30836203683E+03  0.42655049559E+03  0.12509036040E+03 0.  0.
         24    2    1    2    0    0  0.83704892500E+02 -0.13909849369E+03 -0.76244222527E+03  0.78377397998E+03  0.81416244422E+02 0.  0.
        -11    1    3    3    0    0 -0.30040610143E+02  0.39842405882E+02  0.26136332689E+02  0.56329063996E+02  0.00000000000E+00 0.  1.
         12    1    3    3    0    0  0.46084173047E+02  0.50277499691E+02 -0.25497788607E+01  0.68250123464E+02  0.00000000000E+00 0. -1.
        -13    1    5    5    0    0  0.24150565343E+01 -0.90845096929E+01 -0.43996316248E+01  0.10378707668E+02  0.00000000000E+00 0.  1.
         14    1    5    5    0    0  0.81289835965E+02 -0.13001398400E+03 -0.75804259364E+03  0.77339527232E+03  0.00000000000E+00 0. -1.
          5    1    4    4  502    0 -0.99566984478E+02  0.10991707604E+02 -0.13620207898E+03  0.16913751315E+03  0.47000000000E+01 0. -1.
         -5    1    4    4    0  502 -0.10581876850E+03  0.15938221569E+03 -0.17215995784E+03  0.25741298244E+03  0.47000000000E+01 0. -1.
          1    1    1    2  503    0  0.24802566776E+02 -0.43199103070E+02 -0.13816491706E+04  0.13825468384E+04  0.00000000000E+00 0. -1.
         -2    1    1    2    0  501  0.80834730801E+02 -0.78196232102E+02  0.50708305760E+03  0.51940555611E+03  0.00000000000E+00 0.  1.
<mgrwt>
<rscale>  0 0.74930640E+02</rscale>
<asrwt>0</asrwt>
<pdfrwt beam="2">  1        2 0.37931176E+00 0.49812948E+02</pdfrwt>
<pdfrwt beam="1">  1       -1 0.96696487E-01 0.11271368E+03</pdfrwt>
<totfact> 0.68293457E+00</totfact>
</mgrwt>
</event>
<event>
13    1  0.2101801E-008  0.6461542E+02  0.7546771E-02  0.1404670E+00
          2   -1    0    0  502    0  0.00000000000E+00  0.00000000000E+00  0.14087553206E+04  0.14087553206E+04  0.00000000000E+00 0. -1.
          2   -1    0    0  503    0 -0.00000000000E+00 -0.00000000000E+00 -0.16427510405E+04  0.16427510405E+04  0.00000000000E+00 0. -1.
         24    2    1    2    0    0  0.62770502346E+02 -0.12414324881E+03 -0.59994282936E+03  0.62134892492E+03  0.82409986038E+02 0.  0.
         25    2    1    2    0    0 -0.22827050264E+03  0.10033710151E+03  0.42364953590E+03  0.50722625126E+03  0.12499833752E+03 0.  0.
         24    2    1    2    0    0  0.80978301957E+02  0.65886823178E+02 -0.11087216865E+02  0.13209020084E+03  0.80164430540E+02 0.  0.
        -11    1    5    5    0    0  0.51869854634E+02  0.79895477150E+02  0.61881504143E+01  0.95457122805E+02  0.00000000000E+00 0.  1.
         12    1    5    5    0    0  0.29108447323E+02 -0.14008653972E+02 -0.17275367279E+02  0.36633078035E+02  0.00000000000E+00 0. -1.
        -11    1    3    3    0    0  0.35328948614E+02 -0.12873345453E+03 -0.51151110483E+03  0.52864359193E+03  0.00000000000E+00 0.  1.
         12    1    3    3    0    0  0.27441553732E+02  0.45902057182E+01 -0.88431724532E+02  0.92705332983E+02  0.00000000000E+00 0. -1.
          5    1    4    4  501    0 -0.14653282230E+03  0.53720170667E+02  0.36305841115E+03  0.39521035494E+03  0.47000000000E+01 0.  1.
         -5    1    4    4    0  501 -0.81737680346E+02  0.46616930841E+02  0.60591124754E+02  0.11201589632E+03  0.47000000000E+01 0.  1.
          1    1    1    2  502    0  0.20281669909E+02 -0.48730789484E+02  0.87017721685E+03  0.87177659105E+03  0.00000000000E+00 0. -1.
          1    1    1    2  503    0  0.64240028430E+02  0.66501136130E+01 -0.91679242644E+03  0.91906439298E+03  0.00000000000E+00 0. -1.
<mgrwt>
<rscale>  0 0.58400260E+02</rscale>
<asrwt>0</asrwt>
<pdfrwt beam="1">  1        2 0.20716990E+00 0.52782914E+02</pdfrwt>
<pdfrwt beam="2">  1        2 0.24158103E+00 0.64615424E+02</pdfrwt>
<totfact> 0.41119294E+01</totfact>
</mgrwt>
</event>
<event>
13    1  0.1063229E-007  0.6727493E+02  0.7546771E-02  0.1374160E+00
         -3   -1    0    0    0  501 -0.00000000000E+00  0.00000000000E+00  0.16917297680E+04  0.16917297680E+04  0.00000000000E+00 0.  1.
          2   -1    0    0  503    0  0.00000000000E+00 -0.00000000000E+00 -0.11235508028E+04  0.11235508028E+04  0.00000000000E+00 0. -1.
         24    2    1    2    0    0  0.59570105834E+02 -0.98863456607E+02 -0.76438833471E+03  0.77716210593E+03  0.79804962882E+02 0.  0.
         25    2    1    2    0    0 -0.74001842310E+02  0.29465051247E+02  0.14497305645E+03  0.20733408068E+03  0.12500308798E+03 0.  0.
         24    2    1    2    0    0  0.25943145552E+02 -0.15167408048E+02 -0.21681214535E+02  0.91136937140E+02  0.83263252275E+02 0.  0.
        -11    1    3    3    0    0 -0.54977699068E+01 -0.36230414991E+01 -0.32668267674E+01  0.73501061748E+01  0.00000000000E+00 0.  1.
         12    1    3    3    0    0  0.65067875741E+02 -0.95240415108E+02 -0.76112150794E+03  0.76981199976E+03  0.00000000000E+00 0. -1.
        -13    1    5    5    0    0 -0.13603296817E+02  0.16837902198E+02  0.16756320466E+02  0.27374055422E+02  0.00000000000E+00 0.  1.
         14    1    5    5    0    0  0.39546442369E+02 -0.32005310246E+02 -0.38437535001E+02  0.63762881718E+02  0.00000000000E+00 0. -1.
          5    1    4    4  502    0 -0.32519560944E+02  0.63021817949E+02  0.13540419988E+03  0.15292370231E+03  0.47000000000E+01 0.  1.
         -5    1    4    4    0  502 -0.41482281367E+02 -0.33556766702E+02  0.95688565680E+01  0.54410378375E+02  0.47000000000E+01 0.  1.
          1    1    1    2  503    0  0.44004927277E+02  0.51150803212E+02 -0.26016831397E+03  0.26877572415E+03  0.00000000000E+00 0. -1.
         -4    1    1    2    0  501 -0.55516336352E+02  0.33415010197E+02  0.14694437719E+04  0.14708717229E+04  0.00000000000E+00 0.  1.
<mgrwt>
<rscale>  0 0.66024247E+02</rscale>
<asrwt>0</asrwt>
<pdfrwt beam="2">  1        2 0.16522806E+00 0.67274935E+02</pdfrwt>
<pdfrwt beam="1">  1       -3 0.24878379E+00 0.64796809E+02</pdfrwt>
<totfact> 0.14188946E+00</totfact>
</mgrwt>
</event>
<event>
13    1  0.2101801E-008  0.1024841E+03  0.7546771E-02  0.1288835E+00
          2   -1    0    0  502    0  0.00000000000E+00  0.00000000000E+00  0.16956753285E+04  0.16956753285E+04  0.00000000000E+00 0. -1.
          2   -1    0    0  503    0 -0.00000000000E+00 -0.00000000000E+00 -0.27689914333E+04  0.27689914333E+04  0.00000000000E+00 0. -1.
         24    2    1    2    0    0  0.12467055579E+03  0.60766363498E+02 -0.14501325484E+03  0.21596656505E+03  0.79858717285E+02 0.  0.
         25    2    1    2    0    0 -0.12228051189E+03 -0.15218433891E+03  0.12015808094E+03  0.26111369440E+03  0.12501920007E+03 0.  0.
         24    2    1    2    0    0  0.84502016502E+02  0.78120595141E+02  0.55134919502E+03  0.56910023337E+03  0.81521301482E+02 0.  0.
        -11    1    5    5    0    0  0.39704314804E+02  0.80348068578E+02  0.44041761820E+03  0.44944401560E+03  0.00000000000E+00 0.  1.
         12    1    5    5    0    0  0.44797701698E+02 -0.22274734366E+01  0.11093157682E+03  0.11965621778E+03  0.00000000000E+00 0. -1.
        -13    1    3    3    0    0  0.29706065938E+02  0.10582690599E+02 -0.89844125353E+02  0.95217700845E+02  0.00000000000E+00 0.  1.
         14    1    3    3    0    0  0.94964489852E+02  0.50183672899E+02 -0.55169129489E+02  0.12074886421E+03  0.00000000000E+00 0. -1.
          5    1    4    4  501    0  0.32364304878E+00 -0.25000923349E+01 -0.20933046733E+02  0.21601797426E+02  0.47000000000E+01 0. -1.
         -5    1    4    4    0  501 -0.12260415494E+03 -0.14968424657E+03  0.14109112768E+03  0.23951189697E+03  0.47000000000E+01 0. -1.
          1    1    1    2  502    0  0.84281808534E+02  0.58305840222E+02  0.90331576372E+03  0.90911075411E+03  0.00000000000E+00 0. -1.
          1    1    1    2  503    0 -0.17117386893E+03 -0.45008459953E+02 -0.25031258897E+04  0.25093755149E+04  0.00000000000E+00 0. -1.
<mgrwt>
<rscale>  0 0.96047282E+02</rscale>
<asrwt>0</asrwt>
<pdfrwt beam="1">  1        2 0.24936402E+00 0.10248412E+03</pdfrwt>
<pdfrwt beam="2">  1        2 0.40720462E+00 0.90014733E+02</pdfrwt>
<totfact> 0.77463263E+00</totfact>
</mgrwt>
</event>
<event>
13    1  0.2101801E-008  0.1055074E+03  0.7546771E-02  0.1410718E+00
          2   -1    0    0  502    0  0.00000000000E+00  0.00000000000E+00  0.26250962528E+04  0.26250962528E+04  0.00000000000E+00 0. -1.
          2   -1    0    0  503    0 -0.00000000000E+00 -0.00000000000E+00 -0.17014671137E+04  0.17014671137E+04  0.00000000000E+00 0. -1.
         24    2    1    2    0    0  0.14240319241E+03 -0.50145348944E+03 -0.10866477498E+04  0.12078770871E+04  0.80183876918E+02 0.  0.
         25    2    1    2    0    0  0.26566480814E+03  0.15559000006E+03  0.60351284381E+03  0.68893981836E+03  0.12499712909E+03 0.  0.
         24    2    1    2    0    0 -0.34784665630E+03  0.46764395343E+03 -0.38089087107E+02  0.59013933288E+03  0.84412618640E+02 0.  0.
        -11    1    5    5    0    0 -0.13551612605E+03  0.21591092674E+03  0.20130341259E+02  0.25570956052E+03  0.00000000000E+00 0.  1.
         12    1    5    5    0    0 -0.21233053025E+03  0.25173302669E+03 -0.58219428366E+02  0.33442977236E+03  0.00000000000E+00 0. -1.
        -11    1    3    3    0    0 -0.95974504540E+01 -0.16162597517E+02 -0.42695751122E+02  0.46650485287E+02  0.00000000000E+00 0.  1.
         12    1    3    3    0    0  0.15200064286E+03 -0.48529089192E+03 -0.10439519987E+04  0.11612266018E+04  0.00000000000E+00 0. -1.
          5    1    4    4  501    0  0.49444590536E+02 -0.16924513649E+02  0.13509097123E+03  0.14492365991E+03  0.47000000000E+01 0. -1.
         -5    1    4    4    0  501  0.21622021760E+03  0.17251451371E+03  0.46842187258E+03  0.54401615845E+03  0.47000000000E+01 0. -1.
          1    1    1    2  502    0 -0.12273643007E+02 -0.28282457817E+02  0.16280893551E+04  0.16283812477E+04  0.00000000000E+00 0. -1.
          1    1    1    2  503    0 -0.47947701239E+02 -0.93498006235E+02 -0.18323622290E+03  0.21122588054E+03  0.00000000000E+00 0. -1.
<mgrwt>
<rscale>  0 0.57034034E+02</rscale>
<asrwt>0</asrwt>
<pdfrwt beam="1">  1        2 0.38604357E+00 0.30830824E+02</pdfrwt>
<pdfrwt beam="2">  1        2 0.25021575E+00 0.10550743E+03</pdfrwt>
<totfact> 0.10639540E+01</totfact>
</mgrwt>
</event>
<event>
13    1  0.2101801E-008  0.1421117E+03  0.7546771E-02  0.1227446E+00
          2   -1    0    0  502    0  0.00000000000E+00  0.00000000000E+00  0.77729597253E+03  0.77729597253E+03  0.00000000000E+00 0. -1.
          2   -1    0    0  503    0 -0.00000000000E+00 -0.00000000000E+00 -0.28693295886E+04  0.28693295886E+04  0.00000000000E+00 0. -1.
         24    2    1    2    0    0 -0.29177717501E+03 -0.18663950718E+03 -0.85474752394E+03  0.92590206449E+03  0.82055334141E+02 0.  0.
         25    2    1    2    0    0  0.77094515557E+02  0.74312733195E+02 -0.60981022724E+02  0.17552502569E+03  0.12499761144E+03 0.  0.
         24    2    1    2    0    0 -0.33603198042E+02 -0.26022002677E+02 -0.35526081290E+02  0.96843505905E+02  0.79437035708E+02 0.  0.
        -13    1    5    5    0    0  0.23663295913E+02 -0.60136494666E+01  0.35698992920E+01  0.24675083269E+02  0.00000000000E+00 0.  1.
         14    1    5    5    0    0 -0.57266493955E+02 -0.20008353210E+02 -0.39095980582E+02  0.72168422636E+02  0.00000000000E+00 0. -1.
        -13    1    3    3    0    0 -0.58281552019E+02 -0.14398298497E+02 -0.21888183331E+03  0.22696543186E+03  0.00000000000E+00 0.  1.
         14    1    3    3    0    0 -0.23349562299E+03 -0.17224120868E+03 -0.63586569063E+03  0.69893663264E+03  0.00000000000E+00 0. -1.
          5    1    4    4  501    0  0.81655091639E+02  0.32516019221E+01 -0.64293556541E+02  0.10408591796E+03  0.47000000000E+01 0.  1.
         -5    1    4    4    0  501 -0.45605760820E+01  0.71061131273E+02  0.33125338170E+01  0.71439107723E+02  0.47000000000E+01 0.  1.
          1    1    1    2  502    0  0.18218980739E+03  0.12377113390E+02  0.63814162389E+03  0.66375526438E+03  0.00000000000E+00 0. -1.
          1    1    1    2  503    0  0.66096050110E+02  0.12597166327E+03 -0.17789206120E+04  0.17845997007E+04  0.00000000000E+00 0. -1.
<mgrwt>
<rscale>  0 0.13000630E+03</rscale>
<asrwt>0</asrwt>
<pdfrwt beam="1">  1        2 0.11430823E+00 0.11893202E+03</pdfrwt>
<pdfrwt beam="2">  1        2 0.42196022E+00 0.14211174E+03</pdfrwt>
<totfact> 0.20108655E+01</totfact>
</mgrwt>
</event>
<event>
13    1  0.2101801E-008  0.7832507E+02  0.7546771E-02  0.1349473E+00
          2   -1    0    0  502    0  0.00000000000E+00  0.00000000000E+00  0.15001212355E+04  0.15001212355E+04  0.00000000000E+00 0. -1.
          2   -1    0    0  503    0 -0.00000000000E+00 -0.00000000000E+00 -0.29238600490E+04  0.29238600490E+04  0.00000000000E+00 0. -1.
         24    2    1    2    0    0 -0.17865252997E+03 -0.10402674661E+03 -0.79213885402E+03  0.82273427307E+03  0.81666575523E+02 0.  0.
         25    2    1    2    0    0  0.10550914868E+03  0.14314005376E+03  0.58072183394E+02  0.22498201926E+03  0.12499310006E+03 0.  0.
         24    2    1    2    0    0  0.28410157996E+01  0.55688149206E+02 -0.27277674839E+03  0.29026848116E+03  0.82093820490E+02 0.  0.
        -11    1    5    5    0    0  0.41019655766E+02  0.37145565828E+02 -0.12927457230E+03  0.14062119422E+03  0.00000000000E+00 0.  1.
         12    1    5    5    0    0 -0.38178639966E+02  0.18542583378E+02 -0.14350217609E+03  0.14964728695E+03  0.00000000000E+00 0. -1.
        -13    1    3    3    0    0 -0.88052937623E+02 -0.78313694807E+02 -0.31344900063E+03  0.33486807942E+03  0.00000000000E+00 0.  1.
         14    1    3    3    0    0 -0.90599592350E+02 -0.25713051805E+02 -0.47868985339E+03  0.48786619365E+03  0.00000000000E+00 0. -1.
          5    1    4    4  501    0  0.94181560799E+02  0.14023137119E+03  0.35539977155E+01  0.16902581093E+03  0.47000000000E+01 0. -1.
         -5    1    4    4    0  501  0.11327587880E+02  0.29086825697E+01  0.54518185678E+02  0.55956208334E+02  0.47000000000E+01 0. -1.
          1    1    1    2  502    0  0.38961775007E+01 -0.78208587026E+02  0.13327321378E+04  0.13350306043E+04  0.00000000000E+00 0. -1.
          1    1    1    2  503    0  0.66406187994E+02 -0.16592869328E+02 -0.17496275322E+04  0.17509659068E+04  0.00000000000E+00 0. -1.
<mgrwt>
<rscale>  0 0.73220084E+02</rscale>
<asrwt>0</asrwt>
<pdfrwt beam="1">  1        2 0.22060607E+00 0.78325067E+02</pdfrwt>
<pdfrwt beam="2">  1        2 0.42997941E+00 0.68447828E+02</pdfrwt>
<totfact> 0.85579914E+00</totfact>
</mgrwt>
</event>
<event>
13    1  0.3186726E-008  0.6516708E+02  0.7546771E-02  0.1421786E+00
          2   -1    0    0  502    0  0.00000000000E+00  0.00000000000E+00  0.25764879587E+04  0.25764879587E+04  0.00000000000E+00 0. -1.
          2   -1    0    0  503    0 -0.00000000000E+00 -0.00000000000E+00 -0.36458280074E+04  0.36458280074E+04  0.00000000000E+00 0. -1.
         24    2    1    2    0    0 -0.11086052415E+04 -0.17886061856E+03 -0.11875265128E+04  0.16363805094E+04  0.80779023431E+02 0.  0.
         25    2    1    2    0    0  0.40655211122E+03 -0.58922454366E+03  0.27268200993E+03  0.77617791797E+03  0.12500599910E+03 0.  0.
         24    2    1    2    0    0  0.62711922228E+03  0.80046287527E+03 -0.11506097515E+03  0.10286139004E+04  0.10386623390E+03 0.  0.
        -11    1    3    3    0    0 -0.94083867916E+03 -0.12628384295E+03 -0.97964778515E+03  0.13641241923E+04  0.00000000000E+00 0.  1.
         12    1    3    3    0    0 -0.16776656234E+03 -0.52576775609E+02 -0.20787872765E+03  0.27225631707E+03  0.00000000000E+00 0. -1.
        -11    1    5    5    0    0  0.24892987152E+03  0.36530825144E+03 -0.92558136315E+02  0.45164500230E+03  0.00000000000E+00 0.  1.
         12    1    5    5    0    0  0.37818935076E+03  0.43515462382E+03 -0.22502838831E+02  0.57696889813E+03  0.00000000000E+00 0. -1.
          5    1    4    4  501    0  0.37387803640E+03 -0.54388394337E+03  0.28473676633E+03  0.71881266409E+03  0.47000000000E+01 0. -1.
         -5    1    4    4    0  501  0.32674074815E+02 -0.45340600291E+02 -0.12054756405E+02  0.57365253871E+02  0.47000000000E+01 0. -1.
          1    1    1    2  502    0  0.35050381823E+02 -0.54937323321E+02  0.13697074690E+04  0.13712567919E+04  0.00000000000E+00 0. -1.
          1    1    1    2  503    0  0.39883526185E+02  0.22559610280E+02 -0.14091420396E+04  0.14098868464E+04  0.00000000000E+00 0. -1.
<mgrwt>
<rscale>  0 0.54644936E+02</rscale>
<asrwt>0</asrwt>
<pdfrwt beam="1">  1        2 0.37889529E+00 0.65167084E+02</pdfrwt>
<pdfrwt beam="2">  1        2 0.53615117E+00 0.45821738E+02</pdfrwt>
<totfact> 0.11470611E+00</totfact>
</mgrwt>
</event>
<event>
13    1  0.2101801E-008  0.2319693E+03  0.7546771E-02  0.1206271E+00
          2   -1    0    0  502    0  0.00000000000E+00  0.00000000000E+00  0.44550795482E+04  0.44550795482E+04  0.00000000000E+00 0. -1.
          2   -1    0    0  503    0 -0.00000000000E+00 -0.00000000000E+00 -0.24748088653E+04  0.24748088653E+04  0.00000000000E+00 0. -1.
         24    2    1    2    0    0 -0.13812643134E+03  0.34686858194E+03 -0.11797252879E+04  0.12400986400E+04  0.81830055696E+02 0.  0.
         25    2    1    2    0    0  0.23310550910E+03 -0.18315617629E+03  0.15105707089E+04  0.15444530398E+04  0.12500784802E+03 0.  0.
         24    2    1    2    0    0  0.73836607572E+02 -0.18796412589E+03  0.42355164068E+03  0.47592871618E+03  0.79559998226E+02 0.  0.
        -11    1    5    5    0    0  0.28968409595E+01 -0.90234703300E+02  0.23791860345E+03  0.25447191443E+03  0.00000000000E+00 0.  1.
         12    1    5    5    0    0  0.70939766613E+02 -0.97729422591E+02  0.18563303723E+03  0.22145680174E+03  0.00000000000E+00 0. -1.
        -13    1    3    3    0    0 -0.73534756785E+02  0.26205071308E+03 -0.91783618966E+03  0.95734069575E+03  0.00000000000E+00 0.  1.
         14    1    3    3    0    0 -0.64591674552E+02  0.84817868852E+02 -0.26188909819E+03  0.28275794427E+03  0.00000000000E+00 0. -1.
          5    1    4    4  501    0 -0.13574504138E+02 -0.22047994401E+02  0.15583519054E+03  0.15804138012E+03  0.47000000000E+01 0.  1.
         -5    1    4    4    0  501  0.24668001324E+03 -0.16110818189E+03  0.13547355184E+04  0.13864116597E+04  0.47000000000E+01 0.  1.
          1    1    1    2  502    0  0.37230741137E+02 -0.83155215433E+02  0.24357336124E+04  0.24374370040E+04  0.00000000000E+00 0. -1.
          1    1    1    2  503    0 -0.20604642647E+03  0.10740693568E+03 -0.12098599913E+04  0.12319710135E+04  0.00000000000E+00 0. -1.
<mgrwt>
<rscale>  0 0.14537736E+03</rscale>
<asrwt>0</asrwt>
<pdfrwt beam="1">  1        2 0.65515876E+00 0.91109373E+02</pdfrwt>
<pdfrwt beam="2">  1        2 0.36394248E+00 0.23196931E+03</pdfrwt>
<totfact> 0.26804261E-01</totfact>
</mgrwt>
</event>
<event>
13    1  0.2101801E-008  0.1443592E+03  0.7546771E-02  0.1242559E+00
          2   -1    0    0  502    0  0.00000000000E+00  0.00000000000E+00  0.14895398209E+04  0.14895398209E+04  0.00000000000E+00 0. -1.
          2   -1    0    0  503    0 -0.00000000000E+00 -0.00000000000E+00 -0.13847903549E+04  0.13847903549E+04  0.00000000000E+00 0. -1.
         24    2    1    2    0    0  0.26922350951E+03 -0.13151380244E+03 -0.33469602054E+02  0.31246682628E+03  0.82086082596E+02 0.  0.
         25    2    1    2    0    0 -0.28987479388E+03  0.20525322913E+03  0.60626837428E+03  0.71368240682E+03  0.12499980783E+03 0.  0.
         24    2    1    2    0    0 -0.26953239050E+02 -0.56592092408E+02  0.53219694500E+02  0.11362111612E+03  0.78410969435E+02 0.  0.
        -11    1    3    3    0    0  0.20786720671E+03 -0.13612456597E+03 -0.34956450830E+02  0.25091956190E+03  0.00000000000E+00 0.  1.
         12    1    3    3    0    0  0.61356302802E+02  0.46107635302E+01  0.14868487762E+01  0.61547264383E+02  0.00000000000E+00 0. -1.
        -11    1    5    5    0    0 -0.19158483638E+02 -0.28777475147E+01  0.56016579651E+02  0.59272136134E+02  0.00000000000E+00 0.  1.
         12    1    5    5    0    0 -0.77947554125E+01 -0.53714344893E+02 -0.27968851505E+01  0.54348979989E+02  0.00000000000E+00 0. -1.
          5    1    4    4  501    0 -0.16640329901E+03  0.42417131055E+02  0.26176798929E+03  0.31310356297E+03  0.47000000000E+01 0. -1.
         -5    1    4    4    0  501 -0.12347149487E+03  0.16283609807E+03  0.34450038499E+03  0.40057884385E+03  0.47000000000E+01 0. -1.
          1    1    1    2  502    0 -0.97327766460E+02 -0.24216251165E+02  0.59778354397E+03  0.60613883425E+03  0.00000000000E+00 0. -1.
          1    1    1    2  503    0  0.14493228988E+03  0.70689168863E+01 -0.11190525446E+04  0.11284209923E+04  0.00000000000E+00 0. -1.
<mgrwt>
<rscale>  0 0.12032677E+03</rscale>
<asrwt>0</asrwt>
<pdfrwt beam="1">  1        2 0.21904997E+00 0.10029517E+03</pdfrwt>
<pdfrwt beam="2">  1        2 0.20364564E+00 0.14435922E+03</pdfrwt>
<totfact> 0.44989706E+01</totfact>
</mgrwt>
</event>
<event>
13    1  0.2101801E-008  0.8119076E+02  0.7546771E-02  0.1364442E+00
          2   -1    0    0  502    0  0.00000000000E+00  0.00000000000E+00  0.21108633693E+04  0.21108633693E+04  0.00000000000E+00 0. -1.
          2   -1    0    0  503    0 -0.00000000000E+00 -0.00000000000E+00 -0.88063630563E+03  0.88063630563E+03  0.00000000000E+00 0. -1.
         24    2    1    2    0    0 -0.13367521048E+02  0.85822182842E+01 -0.90482172616E+02  0.12205687998E+03  0.80364876037E+02 0.  0.
         25    2    1    2    0    0 -0.90317083159E+02 -0.51167543901E+02  0.87313152098E+03  0.88811786036E+03  0.12497754963E+03 0.  0.
         24    2    1    2    0    0 -0.12145410363E+02  0.29697000774E+02  0.35436407474E+02  0.93680682660E+02  0.80566174548E+02 0.  0.
        -11    1    3    3    0    0  0.18564438412E+02 -0.26233194090E+02 -0.22335533397E+02  0.39136873890E+02  0.00000000000E+00 0.  1.
         12    1    3    3    0    0 -0.31931959460E+02  0.34815412374E+02 -0.68146639219E+02  0.82920006094E+02  0.00000000000E+00 0. -1.
        -13    1    5    5    0    0  0.27237694280E+02 -0.83199087231E+01  0.13129406726E-01  0.28480046406E+02  0.00000000000E+00 0.  1.
         14    1    5    5    0    0 -0.39383104643E+02  0.38016909497E+02  0.35423278067E+02  0.65200636255E+02  0.00000000000E+00 0. -1.
          5    1    4    4  501    0 -0.27896450445E+02 -0.84036683172E+02  0.56961863906E+03  0.57647884613E+03  0.47000000000E+01 0.  1.
         -5    1    4    4    0  501 -0.62420632715E+02  0.32869139271E+02  0.30351288192E+03  0.31163901424E+03  0.47000000000E+01 0.  1.
          1    1    1    2  502    0  0.40143475920E+02  0.42130311904E+02  0.11469219085E+04  0.11483972858E+04  0.00000000000E+00 0. -1.
          1    1    1    2  503    0  0.75686538650E+02 -0.29241987061E+02 -0.73478060062E+03  0.73924696617E+03  0.00000000000E+00 0. -1.
<mgrwt>
<rscale>  0 0.68736887E+02</rscale>
<asrwt>0</asrwt>
<pdfrwt beam="1">  1        2 0.31042108E+00 0.58193314E+02</pdfrwt>
<pdfrwt beam="2">  1        2 0.12950534E+00 0.81190764E+02</pdfrwt>
<totfact> 0.46790159E+01</totfact>
</mgrwt>
</event>
<event>
13    1  0.2101801E-008  0.7826633E+02  0.7546771E-02  0.1335560E+00
          2   -1    0    0  503    0  0.00000000000E+00  0.00000000000E+00  0.26123372491E+04  0.26123372491E+04  0.00000000000E+00 0. -1.
          2   -1    0    0  502    0 -0.00000000000E+00 -0.00000000000E+00 -0.10811561878E+03  0.10811561878E+03  0.00000000000E+00 0. -1.
         24    2    1    2    0    0  0.50155213702E+02 -0.16412632147E+03  0.51553493342E+03  0.54927519302E+03  0.80461016893E+02 0.  0.
         25    2    1    2    0    0 -0.66224826372E+02  0.16980582101E+03  0.15531104193E+03  0.27012340556E+03  0.12500156002E+03 0.  0.
         24    2    1    2    0    0  0.22639444775E+02  0.41134876137E+02  0.15003839521E+04  0.15033268201E+04  0.81454905730E+02 0.  0.
        -11    1    5    5    0    0 -0.29175792839E+02  0.13112734716E+02  0.35840673176E+03  0.35983128834E+03  0.00000000000E+00 0.  1.
         12    1    5    5    0    0  0.51815237613E+02  0.28022141421E+02  0.11419772203E+04  0.11434955317E+04  0.00000000000E+00 0. -1.
        -13    1    3    3    0    0 -0.11945681928E+02 -0.51833607766E+02  0.87308483625E+02  0.10223596981E+03  0.00000000000E+00 0.  1.
         14    1    3    3    0    0  0.62100895630E+02 -0.11229271371E+03  0.42822644979E+03  0.44703922321E+03  0.00000000000E+00 0. -1.
          5    1    4    4  501    0  0.85011628278E+01  0.56461180158E+02 -0.78385092037E+01  0.57824448642E+02  0.47000000000E+01 0. -1.
         -5    1    4    4    0  501 -0.74725989200E+02  0.11334464085E+03  0.16314955114E+03  0.21229895692E+03  0.47000000000E+01 0. -1.
          1    1    1    2  502    0 -0.77949985246E+02 -0.17310483694E+02  0.30410353929E+02  0.85443798321E+02  0.00000000000E+00 0. -1.
          1    1    1    2  503    0  0.71380153141E+02 -0.29503891983E+02  0.30258134891E+03  0.31228365089E+03  0.00000000000E+00 0. -1.
<mgrwt>
<rscale>  0 0.77750130E+02</rscale>
<asrwt>0</asrwt>
<pdfrwt beam="1">  1        2 0.38416720E+00 0.77237335E+02</pdfrwt>
<pdfrwt beam="2">  1        2 0.15899357E-01 0.78266329E+02</pdfrwt>
<totfact> 0.25329481E+02</totfact>
</mgrwt>
</event>
<event>
13    1  0.2101801E-008  0.9397559E+02  0.7546771E-02  0.1304736E+00
          2   -1    0    0  502    0  0.00000000000E+00  0.00000000000E+00  0.32297844963E+04  0.32297844963E+04  0.00000000000E+00 0. -1.
          2   -1    0    0  503    0 -0.00000000000E+00 -0.00000000000E+00 -0.10509865614E+04  0.10509865614E+04  0.00000000000E+00 0. -1.
         24    2    1    2    0    0  0.74801295403E+02  0.96271542788E+02 -0.34584887270E+03  0.37544097678E+03  0.80504910152E+02 0.  0.
         25    2    1    2    0    0 -0.26440234820E+02 -0.14382133901E+03  0.46329481386E+03  0.50164946837E+03  0.12500576385E+03 0.  0.
         24    2    1    2    0    0  0.93461833876E+02 -0.20184962522E+01 -0.63164124936E+01  0.12424031369E+03  0.81587803994E+02 0.  0.
        -11    1    5    5    0    0  0.65002886868E+02  0.37480505082E+02 -0.84588047900E+01  0.75509700972E+02  0.00000000000E+00 0.  1.
         12    1    5    5    0    0  0.28458947008E+02 -0.39499001334E+02  0.21423922964E+01  0.48730612718E+02  0.00000000000E+00 0. -1.
        -11    1    3    3    0    0 -0.49602282205E+01  0.37200440971E+02 -0.16430296782E+03  0.16853469051E+03  0.00000000000E+00 0.  1.
         12    1    3    3    0    0  0.79761523623E+02  0.59071101817E+02 -0.18154590488E+03  0.20690628627E+03  0.00000000000E+00 0. -1.
          5    1    4    4  501    0 -0.60985446175E+02 -0.13629122327E+03  0.30806963456E+03  0.34237919318E+03  0.47000000000E+01 0.  1.
         -5    1    4    4    0  501  0.34545211354E+02 -0.75301157468E+01  0.15522517931E+03  0.15927027520E+03  0.47000000000E+01 0.  1.
          1    1    1    2  502    0 -0.49987482780E+02  0.68397384036E+02  0.26692520984E+04  0.26705961348E+04  0.00000000000E+00 0. -1.
          1    1    1    2  503    0 -0.91835411679E+02 -0.18829091559E+02 -0.60158369210E+03  0.60884416407E+03  0.00000000000E+00 0. -1.
<mgrwt>
<rscale>  0 0.89226223E+02</rscale>
<asrwt>0</asrwt>
<pdfrwt beam="1">  1        2 0.47496831E+00 0.84716885E+02</pdfrwt>
<pdfrwt beam="2">  1        2 0.15455685E+00 0.93975586E+02</pdfrwt>
<totfact> 0.95749562E+00</totfact>
</mgrwt>
</event>
<event>
13    1  0.2101801E-008  0.7458150E+02  0.7546771E-02  0.1366973E+00
          4   -1    0    0  503    0 -0.00000000000E+00  0.00000000000E+00  0.79936710586E+03  0.79936710586E+03  0.00000000000E+00 0. -1.
          2   -1    0    0  502    0  0.00000000000E+00 -0.00000000000E+00 -0.76669148178E+03  0.76669148178E+03  0.00000000000E+00 0. -1.
         24    2    1    2    0    0 -0.51672832695E+02 -0.97362679379E+02  0.22116514799E+03  0.26050653471E+03  0.82462470048E+02 0.  0.
         25    2    1    2    0    0 -0.71250907765E+02  0.84616056068E+01 -0.50094505318E+02  0.15259394301E+03  0.12500864512E+03 0.  0.
         24    2    1    2    0    0  0.54479274054E+02  0.38928658710E+01 -0.48491531694E+03  0.49406575817E+03  0.77297885369E+02 0.  0.
        -11    1    5    5    0    0 -0.93594146567E+01  0.25540653064E+02 -0.13328600840E+03  0.13603339163E+03  0.00000000000E+00 0.  1.
         12    1    5    5    0    0  0.63838688710E+02 -0.21647787193E+02 -0.35162930854E+03  0.35803236654E+03  0.00000000000E+00 0. -1.
        -13    1    3    3    0    0 -0.50050631911E+02 -0.61046651414E+02  0.71561341294E+02  0.10654944848E+03  0.00000000000E+00 0.  1.
         14    1    3    3    0    0 -0.16222007846E+01 -0.36316027965E+02  0.14960380670E+03  0.15395708623E+03  0.00000000000E+00 0. -1.
          5    1    4    4  501    0 -0.29323542079E+02  0.46806695173E+02 -0.72563554631E+02  0.91314272125E+02  0.47000000000E+01 0. -1.
         -5    1    4    4    0  501 -0.41927365686E+02 -0.38345089566E+02  0.22469049314E+02  0.61279670889E+02  0.47000000000E+01 0. -1.
          1    1    1    2  502    0  0.74599747284E+01  0.73678026471E+02 -0.14534918531E+03  0.16312721562E+03  0.00000000000E+00 0. -1.
          3    1    1    2  503    0  0.60984491679E+02  0.11330181431E+02  0.49186948366E+03  0.49576513612E+03  0.00000000000E+00 0. -1.
<mgrwt>
<rscale>  0 0.68015781E+02</rscale>
<asrwt>0</asrwt>
<pdfrwt beam="2">  1        2 0.11274875E+00 0.74581501E+02</pdfrwt>
<pdfrwt beam="1">  1        4 0.11755399E+00 0.62028068E+02</pdfrwt>
<totfact> 0.12225694E+01</totfact>
</mgrwt>
</event>
<event>
13    1  0.2101801E-008  0.1278384E+03  0.7546771E-02  0.1265020E+00
          2   -1    0    0  503    0  0.00000000000E+00  0.00000000000E+00  0.16410069675E+04  0.16410069675E+04  0.00000000000E+00 0. -1.
         -1   -1    0    0    0  501 -0.00000000000E+00 -0.00000000000E+00 -0.17420981174E+04  0.17420981174E+04  0.00000000000E+00 0.  1.
         24    2    1    2    0    0 -0.97566623954E+02  0.36162946387E+03 -0.10126031596E+04  0.10826145005E+04  0.79961756455E+02 0.  0.
         25    2    1    2    0    0  0.18308546355E+03 -0.30617526529E+03  0.58666376096E+03  0.69789924514E+03  0.12500163161E+03 0.  0.
         24    2    1    2    0    0  0.41244468713E+02 -0.76091232669E+02  0.48435304618E+03  0.49785564162E+03  0.75969629870E+02 0.  0.
        -13    1    3    3    0    0 -0.44223355957E+02  0.25825353653E+03 -0.61868994407E+03  0.67188380040E+03  0.00000000000E+00 0.  1.
         14    1    3    3    0    0 -0.53343267997E+02  0.10337592735E+03 -0.39391321556E+03  0.41073070008E+03  0.00000000000E+00 0. -1.
        -13    1    5    5    0    0  0.90995581884E+01  0.12722264848E+02  0.13699885747E+03  0.13788888617E+03  0.00000000000E+00 0.  1.
         14    1    5    5    0    0  0.32144910525E+02 -0.88813497517E+02  0.34735418871E+03  0.35996675544E+03  0.00000000000E+00 0. -1.
          5    1    4    4  502    0  0.27296685496E+02 -0.28043727973E+02  0.16285216065E+03  0.16755439697E+03  0.47000000000E+01 0.  1.
         -5    1    4    4    0  502  0.15578877805E+03 -0.27813153732E+03  0.42381160032E+03  0.53034484817E+03  0.47000000000E+01 0.  1.
          1    1    1    2  503    0 -0.18288847489E+02  0.88754195441E+02  0.46167647919E+03  0.47048587714E+03  0.00000000000E+00 0. -1.
         -2    1    1    2    0  501 -0.10847446082E+03 -0.68117161355E+02 -0.62118127669E+03  0.63424982052E+03  0.00000000000E+00 0.  1.
<mgrwt>
<rscale>  0 0.10763166E+03</rscale>
<asrwt>0</asrwt>
<pdfrwt beam="1">  1        2 0.24132456E+00 0.90618923E+02</pdfrwt>
<pdfrwt beam="2">  1       -1 0.25619090E+00 0.12783836E+03</pdfrwt>
<totfact> 0.12488955E+00</totfact>
</mgrwt>
</event>
<event>
13    1  0.2101801E-008  0.6081660E+02  0.7546771E-02  0.1469771E+00
          2   -1    0    0  503    0  0.00000000000E+00  0.00000000000E+00  0.36448392488E+04  0.36448392488E+04  0.00000000000E+00 0. -1.
          2   -1    0    0  502    0 -0.00000000000E+00 -0.00000000000E+00 -0.49332934685E+03  0.49332934685E+03  0.00000000000E+00 0. -1.
         24    2    1    2    0    0  0.94817836060E+02 -0.20141685501E+02 -0.17369030155E+03  0.21390522939E+03  0.78683014552E+02 0.  0.
         25    2    1    2    0    0 -0.10575148318E+03  0.12026513578E+02  0.48722892130E+03  0.51414460036E+03  0.12499854041E+03 0.  0.
         24    2    1    2    0    0  0.44075298625E+01  0.33811985474E+02  0.14704958656E+04  0.14730654581E+04  0.80006728142E+02 0.  0.
        -11    1    3    3    0    0  0.10359567056E+02 -0.36913828481E+02 -0.45811458034E+02  0.59738103836E+02  0.00000000000E+00 0.  1.
         12    1    3    3    0    0  0.84458269004E+02  0.16772142981E+02 -0.12787884351E+03  0.15416712556E+03  0.00000000000E+00 0. -1.
        -13    1    5    5    0    0 -0.16602925125E+02 -0.20050698356E+02  0.29415499882E+03  0.29530467480E+03  0.00000000000E+00 0.  1.
         14    1    5    5    0    0  0.21010454987E+02  0.53862683830E+02  0.11763408667E+04  0.11777607833E+04  0.00000000000E+00 0. -1.
          5    1    4    4  501    0 -0.97439725407E+02  0.47459413379E+02  0.44575523285E+03  0.45876651319E+03  0.47000000000E+01 0.  1.
         -5    1    4    4    0  501 -0.83117577691E+01 -0.35432899801E+02  0.41473688448E+02  0.55378087174E+02  0.47000000000E+01 0.  1.
          1    1    1    2  502    0 -0.75882406569E+01  0.33554278748E+02 -0.28318630002E+03  0.28526820983E+03  0.00000000000E+00 0. -1.
          1    1    1    2  503    0  0.14114357911E+02 -0.59251092300E+02  0.16506617167E+04  0.16517850980E+04  0.00000000000E+00 0. -1.
<mgrwt>
<rscale>  0 0.45740455E+02</rscale>
<asrwt>0</asrwt>
<pdfrwt beam="1">  1        2 0.53600576E+00 0.60816603E+02</pdfrwt>
<pdfrwt beam="2">  1        2 0.72548435E-01 0.34401614E+02</pdfrwt>
<totfact> 0.14490793E+01</totfact>
</mgrwt>
</event>
<event>
13    1  0.2101801E-008  0.3606999E+02  0.7546771E-02  0.1595980E+00
          2   -1    0    0  502    0  0.00000000000E+00  0.00000000000E+00  0.18214527949E+04  0.18214527949E+04  0.00000000000E+00 0. -1.
          2   -1    0    0  503    0 -0.00000000000E+00 -0.00000000000E+00 -0.14447429113E+03  0.14447429113E+03  0.00000000000E+00 0. -1.
         24    2    1    2    0    0  0.19036714653E+02 -0.79683583980E+02  0.44815356637E+02  0.12320787486E+03  0.80373466864E+02 0.  0.
         25    2    1    2    0    0 -0.47378430181E+02  0.50069983263E+02  0.90617382517E+03  0.91734827833E+03  0.12500057383E+03 0.  0.
         24    2    1    2    0    0 -0.24294566493E+02  0.39779003753E+02  0.10819304018E+03  0.14271401042E+03  0.80554079519E+02 0.  0.
        -13    1    5    5    0    0  0.43224201659E+01 -0.23085273168E+02  0.21242932719E+02  0.31668207146E+02  0.00000000000E+00 0.  1.
         14    1    5    5    0    0 -0.28616986659E+02  0.62864276921E+02  0.86950107457E+02  0.11104580327E+03  0.00000000000E+00 0. -1.
        -13    1    3    3    0    0 -0.25046303628E+02 -0.56200066382E+02  0.39177772737E+02  0.72942872602E+02  0.00000000000E+00 0.  1.
         14    1    3    3    0    0  0.44083018281E+02 -0.23483517598E+02  0.56375839003E+01  0.50265002256E+02  0.00000000000E+00 0. -1.
          5    1    4    4  501    0 -0.50983727879E+02 -0.39422080660E+01  0.13782523495E+03  0.14708081759E+03  0.47000000000E+01 0.  1.
         -5    1    4    4    0  501  0.36052976981E+01  0.54012191329E+02  0.76834859022E+03  0.77026746074E+03  0.47000000000E+01 0.  1.
          1    1    1    2  502    0  0.35071058436E+02  0.80033660482E+01  0.69781544798E+03  0.69874203569E+03  0.00000000000E+00 0. -1.
          1    1    1    2  503    0  0.17565223585E+02 -0.18168769084E+02 -0.80019166212E+02  0.83914886706E+02  0.00000000000E+00 0. -1.
<mgrwt>
<rscale>  0 0.30191679E+02</rscale>
<asrwt>0</asrwt>
<pdfrwt beam="1">  1        2 0.26786069E+00 0.36069993E+02</pdfrwt>
<pdfrwt beam="2">  1        2 0.21246220E-01 0.25271352E+02</pdfrwt>
<totfact> 0.45161462E+02</totfact>
</mgrwt>
</event>
<event>
13    1  0.2101801E-008  0.1376445E+03  0.7546771E-02  0.1303432E+00
          2   -1    0    0  503    0  0.00000000000E+00  0.00000000000E+00  0.56202633284E+03  0.56202633284E+03  0.00000000000E+00 0. -1.
          2   -1    0    0  502    0 -0.00000000000E+00 -0.00000000000E+00 -0.34202270116E+04  0.34202270116E+04  0.00000000000E+00 0. -1.
         24    2    1    2    0    0  0.41778979436E+02  0.24674931973E+02 -0.76665820146E+03  0.77243570505E+03  0.80856571612E+02 0.  0.
         25    2    1    2    0    0 -0.15147443761E+02 -0.67730260259E+02  0.21548615562E+03  0.25860098447E+03  0.12499341063E+03 0.  0.
         24    2    1    2    0    0  0.15665459612E+03 -0.19977503755E+02 -0.11212859381E+04  0.11351961986E+04  0.80302498610E+02 0.  0.
        -11    1    5    5    0    0  0.38792297561E+02 -0.14760513287E+02 -0.56578334912E+03  0.56730372222E+03  0.00000000000E+00 0.  1.
         12    1    5    5    0    0  0.11786229856E+03 -0.52169904680E+01 -0.55550258897E+03  0.56789247641E+03  0.00000000000E+00 0. -1.
        -13    1    3    3    0    0 -0.13080709003E+02 -0.19239571506E+02 -0.23625247160E+03  0.23739523247E+03  0.00000000000E+00 0.  1.
         14    1    3    3    0    0  0.54859688439E+02  0.43914503480E+02 -0.53040572986E+03  0.53504047258E+03  0.00000000000E+00 0. -1.
          5    1    4    4  501    0  0.15002148008E+02 -0.83723794218E+02  0.73555080250E+02  0.11254855838E+03  0.47000000000E+01 0. -1.
         -5    1    4    4    0  501 -0.30149591769E+02  0.15993533959E+02  0.14193107537E+03  0.14605242609E+03  0.47000000000E+01 0. -1.
          1    1    1    2  502    0 -0.24182068259E+03  0.62896446124E+02 -0.14876516055E+04  0.15084894779E+04  0.00000000000E+00 0. -1.
          1    1    1    2  503    0  0.58534550797E+02  0.13638591733E+00  0.30190891076E+03  0.30753097834E+03  0.00000000000E+00 0. -1.
<mgrwt>
<rscale>  0 0.89760697E+02</rscale>
<asrwt>0</asrwt>
<pdfrwt beam="1">  1        2 0.82650929E-01 0.58534710E+02</pdfrwt>
<pdfrwt beam="2">  1        2 0.50297457E+00 0.13764453E+03</pdfrwt>
<totfact> 0.14677267E+01</totfact>
</mgrwt>
</event>
<event>
13    1  0.2101801E-008  0.5975889E+02  0.7546771E-02  0.1413396E+00
         -1   -1    0    0    0  501 -0.00000000000E+00  0.00000000000E+00  0.71413426721E+03  0.71413426721E+03  0.00000000000E+00 0.  1.
          2   -1    0    0  503    0  0.00000000000E+00 -0.00000000000E+00 -0.34849501978E+04  0.34849501978E+04  0.00000000000E+00 0. -1.
         24    2    1    2    0    0 -0.24767438967E+03 -0.31740383759E+03 -0.14607825682E+03  0.43586149341E+03  0.80923327305E+02 0.  0.
         25    2    1    2    0    0  0.17434949404E+03  0.32673866185E+03 -0.20774626621E+04  0.21139138656E+04  0.12499927740E+03 0.  0.
         24    2    1    2    0    0 -0.37982204740E+02  0.25518240785E+01 -0.20485334203E+03  0.22329416674E+03  0.80288439237E+02 0.  0.
        -11    1    5    5    0    0  0.21057144437E+02  0.17167382463E+02 -0.78403760012E+02  0.82977538747E+02  0.00000000000E+00 0.  1.
         12    1    5    5    0    0 -0.59039349177E+02 -0.14615558385E+02 -0.12644958202E+03  0.14031662799E+03  0.00000000000E+00 0. -1.
        -11    1    3    3    0    0 -0.71262533763E+02 -0.55451112209E+02 -0.63594718238E+01  0.90518602759E+02  0.00000000000E+00 0.  1.
         12    1    3    3    0    0 -0.17641185591E+03 -0.26195272538E+03 -0.13971878500E+03  0.34534289065E+03  0.00000000000E+00 0. -1.
          5    1    4    4  502    0  0.55006575230E+02  0.24551275576E+02 -0.21542428990E+03  0.22373690605E+03  0.47000000000E+01 0.  1.
         -5    1    4    4    0  502  0.11934291881E+03  0.30218738627E+03 -0.18620383722E+04  0.18901769595E+04  0.47000000000E+01 0.  1.
          1    1    1    2  503    0  0.59457826426E+02  0.51039313386E+00 -0.88190338618E+03  0.88390558104E+03  0.00000000000E+00 0. -1.
         -2    1    1    2    0  501  0.51849273947E+02 -0.12397041470E+02  0.53948171654E+03  0.54210935828E+03  0.00000000000E+00 0.  1.
<mgrwt>
<rscale>  0 0.56442801E+02</rscale>
<asrwt>0</asrwt>
<pdfrwt beam="2">  1        2 0.51249266E+00 0.59758887E+02</pdfrwt>
<pdfrwt beam="1">  1       -1 0.10501975E+00 0.53310729E+02</pdfrwt>
<totfact> 0.19119020E+00</totfact>
</mgrwt>
</event>
<event>
13    1  0.2101801E-008  0.9421574E+02  0.7546771E-02  0.1417721E+00
         -1   -1    0    0    0  501 -0.00000000000E+00  0.00000000000E+00  0.75129759356E+03  0.75129759356E+03  0.00000000000E+00 0.  1.
          2   -1    0    0  503    0  0.00000000000E+00 -0.00000000000E+00 -0.98338022145E+03  0.98338022145E+03  0.00000000000E+00 0. -1.
         24    2    1    2    0    0 -0.98682756030E+01 -0.68378472050E+00  0.77997484433E+02  0.11120142096E+03  0.78640307869E+02 0.  0.
         25    2    1    2    0    0 -0.11714619591E+03  0.20731646923E+03 -0.41394825721E+03  0.49364083016E+03  0.12499903969E+03 0.  0.
         24    2    1    2    0    0  0.13005842665E+03 -0.12642305847E+03 -0.21434922018E+03  0.29165120559E+03  0.78847025797E+02 0.  0.
        -11    1    5    5    0    0  0.75248076815E+02 -0.12019556640E+03 -0.14212357399E+03  0.20076941383E+03  0.00000000000E+00 0.  1.
         12    1    5    5    0    0  0.54810349831E+02 -0.62274920719E+01 -0.72225646192E+02  0.90881791763E+02  0.00000000000E+00 0. -1.
        -11    1    3    3    0    0  0.12829110813E+02 -0.35126583497E+02  0.44022441167E+02  0.57761910276E+02  0.00000000000E+00 0.  1.
         12    1    3    3    0    0 -0.22697386416E+02  0.34442798777E+02  0.33975043267E+02  0.53439510689E+02  0.00000000000E+00 0. -1.
          5    1    4    4  502    0 -0.80552985698E+02  0.15104497433E+03 -0.17279774385E+03  0.24327868393E+03  0.47000000000E+01 0.  1.
         -5    1    4    4    0  502 -0.36593210215E+02  0.56271494907E+02 -0.24115051336E+03  0.25036214623E+03  0.47000000000E+01 0.  1.
          1    1    1    2  503    0  0.15505891806E+02  0.28790738484E+02 -0.25363835808E+03  0.25573767027E+03  0.00000000000E+00 0. -1.
         -2    1    1    2    0  501 -0.18549846936E+02 -0.10900036452E+03  0.57185572315E+03  0.58244668803E+03  0.00000000000E+00 0.  1.
<mgrwt>
<rscale>  0 0.55506087E+02</rscale>
<asrwt>0</asrwt>
<pdfrwt beam="2">  1        2 0.14461474E+00 0.32700754E+02</pdfrwt>
<pdfrwt beam="1">  1       -1 0.11048494E+00 0.94215740E+02</pdfrwt>
<totfact> 0.30894809E+01</totfact>
</mgrwt>
</event>
<event>
13    1  0.2101801E-008  0.8465178E+02  0.7546771E-02  0.1469913E+00
          2   -1    0    0  503    0  0.00000000000E+00  0.00000000000E+00  0.17598284499E+04  0.17598284499E+04  0.00000000000E+00 0. -1.
          2   -1    0    0  502    0 -0.00000000000E+00 -0.00000000000E+00 -0.26424406683E+04  0.26424406683E+04  0.00000000000E+00 0. -1.
         24    2    1    2    0    0  0.37394356336E+02  0.14245671982E+03 -0.15158577341E+04  0.15253264903E+04  0.84285094819E+02 0.  0.
         25    2    1    2    0    0  0.76625189266E+02 -0.13306411792E+03  0.22308380109E+03  0.29827599458E+03  0.12499883012E+03 0.  0.
         24    2    1    2    0    0 -0.53998787057E+02 -0.92903275982E+01  0.17978338005E+02  0.99054852279E+02  0.80538586604E+02 0.  0.
        -11    1    3    3    0    0  0.23220648095E+02  0.33473899661E+01 -0.10673267779E+03  0.10928068459E+03  0.00000000000E+00 0.  1.
         12    1    3    3    0    0  0.14173708242E+02  0.13910932985E+03 -0.14091250563E+04  0.14160458058E+04  0.00000000000E+00 0. -1.
        -13    1    5    5    0    0 -0.19725725692E+02  0.35496150663E+02  0.30857233946E+01  0.40725945720E+02  0.00000000000E+00 0.  1.
         14    1    5    5    0    0 -0.34273061365E+02 -0.44786478261E+02  0.14892614611E+02  0.58328906559E+02  0.00000000000E+00 0. -1.
          5    1    4    4  501    0  0.46268422041E+02 -0.51060204035E+02  0.12468625991E+02  0.70181678152E+02  0.47000000000E+01 0.  1.
         -5    1    4    4    0  501  0.30356767225E+02 -0.82003913882E+02  0.21061517510E+03  0.22809431643E+03  0.47000000000E+01 0.  1.
          1    1    1    2  502    0  0.24636516140E+02 -0.16280676218E+01 -0.10423196756E+04  0.10426120633E+04  0.00000000000E+00 0. -1.
          1    1    1    2  503    0 -0.84657274685E+02  0.15257933161E+01  0.14345030521E+04  0.14369997177E+04  0.00000000000E+00 0. -1.
<mgrwt>
<rscale>  0 0.45717325E+02</rscale>
<asrwt>0</asrwt>
<pdfrwt beam="1">  1        2 0.25879830E+00 0.84651782E+02</pdfrwt>
<pdfrwt beam="2">  1        2 0.38859421E+00 0.24690252E+02</pdfrwt>
<totfact> 0.10347222E+01</totfact>
</mgrwt>
</event>
<event>
13    1  0.2101801E-008  0.1223243E+03  0.7546771E-02  0.1272889E+00
          2   -1    0    0  502    0  0.00000000000E+00  0.00000000000E+00  0.58164937967E+03  0.58164937967E+03  0.00000000000E+00 0. -1.
          2   -1    0    0  503    0 -0.00000000000E+00 -0.00000000000E+00 -0.25840888704E+04  0.25840888704E+04  0.00000000000E+00 0. -1.
         24    2    1    2    0    0  0.21176302878E+03 -0.17504840267E+03 -0.99180113278E+03  0.10323323875E+04  0.80963865935E+02 0.  0.
         25    2    1    2    0    0 -0.29663493100E+02  0.15056197032E+02  0.18444924740E+03  0.22529083958E+03  0.12501130205E+03 0.  0.
         24    2    1    2    0    0 -0.12391114077E+03 -0.13180939986E+02 -0.37057475911E+03  0.40082185420E+03  0.88344771951E+02 0.  0.
        -11    1    5    5    0    0 -0.95564942507E+02 -0.46346397657E+00 -0.14855829727E+03  0.17664212613E+03  0.00000000000E+00 0.  1.
         12    1    5    5    0    0 -0.28346198266E+02 -0.12717476009E+02 -0.22201646184E+03  0.22417972807E+03  0.00000000000E+00 0. -1.
        -13    1    3    3    0    0  0.10583962759E+03 -0.12714361847E+03 -0.67179677473E+03  0.69186590683E+03  0.00000000000E+00 0.  1.
         14    1    3    3    0    0  0.10592340119E+03 -0.47904784201E+02 -0.32000435805E+03  0.34046648064E+03  0.00000000000E+00 0. -1.
          5    1    4    4  501    0  0.34765589928E+02  0.15074693164E+02  0.10303530281E+02  0.39549277532E+02  0.47000000000E+01 0.  1.
         -5    1    4    4    0  501 -0.64429083028E+02 -0.18496131929E-01  0.17414571712E+03  0.18574156205E+03  0.47000000000E+01 0.  1.
          1    1    1    2  502    0 -0.70631623558E+02  0.52075250100E+02  0.33250443861E+03  0.34388931303E+03  0.00000000000E+00 0. -1.
          1    1    1    2  503    0  0.12443228648E+02  0.12109789553E+03 -0.11570172848E+04  0.11634038558E+04  0.00000000000E+00 0. -1.
<mgrwt>
<rscale>  0 0.10360682E+03</rscale>
<asrwt>0</asrwt>
<pdfrwt beam="1">  1        2 0.85536674E-01 0.87753393E+02</pdfrwt>
<pdfrwt beam="2">  1        2 0.38001307E+00 0.12232431E+03</pdfrwt>
<totfact> 0.40511566E+01</totfact>
</mgrwt>
</event>
<event>
13    1  0.2101801E-008  0.9800799E+02  0.7546771E-02  0.1289000E+00
          2   -1    0    0  503    0  0.00000000000E+00  0.00000000000E+00  0.32543428635E+04  0.32543428635E+04  0.00000000000E+00 0. -1.
          2   -1    0    0  502    0 -0.00000000000E+00 -0.00000000000E+00 -0.48857087103E+04  0.48857087103E+04  0.00000000000E+00 0. -1.
         24    2    1    2    0    0  0.76414157227E+03  0.13715039898E+04  0.95891613541E+02  0.15737957440E+04  0.51983707349E+02 0.  0.
         25    2    1    2    0    0 -0.64996213404E+03 -0.68339321560E+03 -0.26980946352E+03  0.98888682468E+03  0.12499177020E+03 0.  0.
         24    2    1    2    0    0 -0.11505035171E+03 -0.68347291120E+03 -0.50482954991E+03  0.86106463908E+03  0.78788542494E+02 0.  0.
        -11    1    5    5    0    0 -0.24740700571E+01 -0.18987774320E+03 -0.16235565505E+03  0.24983802175E+03  0.00000000000E+00 0.  1.
         12    1    5    5    0    0 -0.11257628165E+03 -0.49359516801E+03 -0.34247389486E+03  0.61122661733E+03  0.00000000000E+00 0. -1.
        -11    1    3    3    0    0  0.49015034501E+03  0.90719118276E+03  0.83749542382E+02  0.10345323526E+04  0.00000000000E+00 0.  1.
         12    1    3    3    0    0  0.27399122726E+03  0.46431280702E+03  0.12142071159E+02  0.53926339137E+03  0.00000000000E+00 0. -1.
          5    1    4    4  501    0 -0.15376446394E+03 -0.16847716509E+03 -0.11067973972E+02  0.22841334369E+03  0.47000000000E+01 0.  1.
         -5    1    4    4    0  501 -0.49619767010E+03 -0.51491605050E+03 -0.25874148955E+03  0.76047348099E+03  0.47000000000E+01 0.  1.
          1    1    1    2  502    0  0.32255200538E+02  0.88271036135E+02 -0.28324039176E+04  0.28339626190E+04  0.00000000000E+00 0. -1.
          1    1    1    2  503    0 -0.31384287054E+02 -0.92908899115E+02  0.18797854706E+04  0.18823417470E+04  0.00000000000E+00 0. -1.
<mgrwt>
<rscale>  0 0.95972683E+02</rscale>
<asrwt>0</asrwt>
<pdfrwt beam="1">  1        2 0.47857984E+00 0.98007988E+02</pdfrwt>
<pdfrwt beam="2">  1        2 0.71848656E+00 0.93979646E+02</pdfrwt>
<totfact> 0.49901386E-02</totfact>
</mgrwt>
</event>
<event>
13    1  0.2101801E-008  0.8953117E+02  0.7546771E-02  0.1366779E+00
          2   -1    0    0  503    0  0.00000000000E+00  0.00000000000E+00  0.16665985354E+04  0.16665985354E+04  0.00000000000E+00 0. -1.
          2   -1    0    0  502    0 -0.00000000000E+00 -0.00000000000E+00 -0.24384229449E+04  0.24384229449E+04  0.00000000000E+00 0. -1.
         24    2    1    2    0    0 -0.14816396062E+03  0.33188824888E+03 -0.15937741589E+04  0.16367275538E+04  0.81600532997E+02 0.  0.
         25    2    1    2    0    0  0.46340283607E+03 -0.10195537592E+03  0.59138538018E+03  0.76843895702E+03  0.12499870250E+03 0.  0.
         24    2    1    2    0    0 -0.19127454143E+03 -0.26397650845E+03 -0.10728812592E+03  0.35237951221E+03  0.79943926896E+02 0.  0.
        -11    1    5    5    0    0 -0.14095342425E+02 -0.92509948595E+01 -0.27070772701E+02  0.31891790771E+02  0.00000000000E+00 0.  1.
         12    1    5    5    0    0 -0.17717919901E+03 -0.25472551359E+03 -0.80217353220E+02  0.32048772144E+03  0.00000000000E+00 0. -1.
        -13    1    3    3    0    0 -0.13569882917E+03  0.22115005378E+03 -0.10425530060E+04  0.10743548245E+04  0.00000000000E+00 0.  1.
         14    1    3    3    0    0 -0.12465131448E+02  0.11073819510E+03 -0.55122115287E+03  0.56237272936E+03  0.00000000000E+00 0. -1.
          5    1    4    4  501    0  0.30147178839E+03 -0.29671560694E+02  0.29401315051E+03  0.42217468349E+03  0.47000000000E+01 0. -1.
         -5    1    4    4    0  501  0.16193104768E+03 -0.72283815226E+02  0.29737222967E+03  0.34626427353E+03  0.47000000000E+01 0. -1.
          1    1    1    2  502    0 -0.34584439577E+02  0.38502662040E+02 -0.50109893873E+03  0.50376451328E+03  0.00000000000E+00 0. -1.
          1    1    1    2  503    0 -0.89379894445E+02 -0.44590265484E+01  0.83895143387E+03  0.84371094389E+03  0.00000000000E+00 0. -1.
<mgrwt>
<rscale>  0 0.68070916E+02</rscale>
<asrwt>0</asrwt>
<pdfrwt beam="1">  1        2 0.24508802E+00 0.89531167E+02</pdfrwt>
<pdfrwt beam="2">  1        2 0.35859161E+00 0.51754598E+02</pdfrwt>
<totfact> 0.12758661E+01</totfact>
</mgrwt>
</event>
<event>
13    1  0.2101801E-008  0.1680034E+03  0.7546771E-02  0.1236109E+00
          2   -1    0    0  503    0  0.00000000000E+00  0.00000000000E+00  0.18163529275E+04  0.18163529275E+04  0.00000000000E+00 0. -1.
          2   -1    0    0  502    0 -0.00000000000E+00 -0.00000000000E+00 -0.54185868556E+03  0.54185868556E+03  0.00000000000E+00 0. -1.
         24    2    1    2    0    0  0.48287388292E+02 -0.10315633336E+03 -0.11129916932E+03  0.17693149350E+03  0.77099593523E+02 0.  0.
         25    2    1    2    0    0  0.16744898624E+03  0.22194847634E+03 -0.56087642833E+02  0.30995436732E+03  0.12500238797E+03 0.  0.
         24    2    1    2    0    0  0.13893399838E+02  0.46669378633E+02  0.23922793748E+03  0.25700404558E+03  0.80311991105E+02 0.  0.
        -11    1    5    5    0    0  0.26493676779E+02 -0.15359872827E+02  0.77701745821E+02  0.83518871557E+02  0.00000000000E+00 0.  1.
         12    1    5    5    0    0 -0.12600276942E+02  0.62029251460E+02  0.16152619166E+03  0.17348517402E+03  0.00000000000E+00 0. -1.
        -13    1    3    3    0    0  0.43230785275E+02 -0.11921319378E+02 -0.48512211116E+02  0.66064008950E+02  0.00000000000E+00 0.  1.
         14    1    3    3    0    0  0.50566030165E+01 -0.91235013982E+02 -0.62786958201E+02  0.11086748455E+03  0.00000000000E+00 0. -1.
          5    1    4    4  501    0  0.70016570290E+02  0.43713514350E+02 -0.67093715741E+02  0.10647463615E+03  0.47000000000E+01 0. -1.
         -5    1    4    4    0  501  0.97432415948E+02  0.17823496199E+03  0.11006072908E+02  0.20347973117E+03  0.47000000000E+01 0. -1.
          1    1    1    2  502    0 -0.14927239632E+03 -0.65518038655E+02 -0.17009315307E+03  0.23559826488E+03  0.00000000000E+00 0. -1.
          1    1    1    2  503    0 -0.80357378044E+02 -0.99943482963E+02  0.13727462697E+04  0.13787234418E+04  0.00000000000E+00 0. -1.
<mgrwt>
<rscale>  0 0.12433685E+03</rscale>
<asrwt>0</asrwt>
<pdfrwt beam="1">  1        2 0.26711072E+00 0.92019866E+02</pdfrwt>
<pdfrwt beam="2">  1        2 0.79685101E-01 0.16800341E+03</pdfrwt>
<totfact> 0.10611424E+02</totfact>
</mgrwt>
</event>
<event>
13    1  0.2101801E-008  0.1635514E+03  0.7546771E-02  0.1259078E+00
          2   -1    0    0  503    0  0.00000000000E+00  0.00000000000E+00  0.20928266280E+04  0.20928266280E+04  0.00000000000E+00 0. -1.
          2   -1    0    0  502    0 -0.00000000000E+00 -0.00000000000E+00 -0.12081306400E+04  0.12081306400E+04  0.00000000000E+00 0. -1.
         24    2    1    2    0    0 -0.12681757832E+03  0.96467044411E+02 -0.19987590368E+03  0.26881518740E+03  0.83202399474E+02 0.  0.
         25    2    1    2    0    0  0.20653178897E+03  0.44522773449E+03  0.19811504662E+03  0.54383615848E+03  0.12500032061E+03 0.  0.
         24    2    1    2    0    0 -0.15371888240E+03 -0.49170705477E+03  0.11321803459E+04  0.12458965220E+04  0.70855384066E+02 0.  0.
        -11    1    3    3    0    0 -0.21840894386E+02 -0.14287345773E+02 -0.40348882133E+02  0.48053982210E+02  0.00000000000E+00 0.  1.
         12    1    3    3    0    0 -0.10497668393E+03  0.11075439018E+03 -0.15952702155E+03  0.22076120520E+03  0.00000000000E+00 0. -1.
        -11    1    5    5    0    0 -0.84433384807E+02 -0.19206555353E+03  0.39828953970E+03  0.45016966886E+03  0.00000000000E+00 0.  1.
         12    1    5    5    0    0 -0.69285497590E+02 -0.29964150124E+03  0.73389080616E+03  0.79572685314E+03  0.00000000000E+00 0. -1.
          5    1    4    4  501    0  0.93622868329E+02  0.29905223160E+03  0.76379418510E+02  0.32257306812E+03  0.47000000000E+01 0.  1.
         -5    1    4    4    0  501  0.11290892064E+03  0.14617550289E+03  0.12173562811E+03  0.22126309036E+03  0.47000000000E+01 0.  1.
          1    1    1    2  502    0  0.12968601261E+03 -0.10034567880E+03 -0.73211735409E+03  0.75025564795E+03  0.00000000000E+00 0. -1.
          1    1    1    2  503    0 -0.55681340862E+02  0.50357954668E+02  0.48639385321E+03  0.49215375215E+03  0.00000000000E+00 0. -1.
<mgrwt>
<rscale>  0 0.11080933E+03</rscale>
<asrwt>0</asrwt>
<pdfrwt beam="1">  1        2 0.30776862E+00 0.75075531E+02</pdfrwt>
<pdfrwt beam="2">  1        2 0.17766627E+00 0.16355140E+03</pdfrwt>
<totfact> 0.29110345E+01</totfact>
</mgrwt>
</event>
<event>
13    1  0.2101801E-008  0.2084198E+03  0.7546771E-02  0.1157300E+00
          2   -1    0    0  503    0  0.00000000000E+00  0.00000000000E+00  0.20839342410E+04  0.20839342410E+04  0.00000000000E+00 0. -1.
          2   -1    0    0  502    0 -0.00000000000E+00 -0.00000000000E+00 -0.11089462876E+04  0.11089462876E+04  0.00000000000E+00 0. -1.
         24    2    1    2    0    0  0.48448257675E+02  0.69434681878E+02  0.80761237217E+02  0.13956109552E+03  0.76069134520E+02 0.  0.
         25    2    1    2    0    0 -0.94961083343E+01  0.32007085744E+02 -0.24916735866E+03  0.28075397205E+03  0.12499516226E+03 0.  0.
         24    2    1    2    0    0 -0.23301838078E+03 -0.37741560437E+03  0.10011220856E+04  0.10977313896E+04  0.77644506401E+02 0.  0.
        -11    1    3    3    0    0  0.24928766638E+01 -0.54084139123E+01 -0.11021675921E+02  0.12527677966E+02  0.00000000000E+00 0.  1.
         12    1    3    3    0    0  0.45955381011E+02  0.74843095790E+02  0.91782913138E+02  0.12703341755E+03  0.00000000000E+00 0. -1.
        -13    1    5    5    0    0 -0.15013672315E+03 -0.28280651390E+03  0.64608782999E+03  0.72107561601E+03  0.00000000000E+00 0.  1.
         14    1    5    5    0    0 -0.82881657624E+02 -0.94609090467E+02  0.35503425558E+03  0.37665577363E+03  0.00000000000E+00 0. -1.
          5    1    4    4  501    0 -0.51307661539E+02  0.52305557190E+02 -0.19944344365E+03  0.21252793855E+03  0.47000000000E+01 0. -1.
         -5    1    4    4    0  501  0.41811553205E+02 -0.20298471446E+02 -0.49723915008E+02  0.68226033507E+02  0.47000000000E+01 0. -1.
          1    1    1    2  502    0 -0.12785814576E+03  0.12023038447E+03 -0.72013788440E+03  0.74121631346E+03  0.00000000000E+00 0. -1.
          1    1    1    2  503    0  0.32192437720E+03  0.15574345227E+03  0.86240987368E+03  0.93361775785E+03  0.00000000000E+00 0. -1.
<mgrwt>
<rscale>  0 0.19129325E+03</rscale>
<asrwt>0</asrwt>
<pdfrwt beam="1">  1        2 0.30646092E+00 0.20841976E+03</pdfrwt>
<pdfrwt beam="2">  1        2 0.16308034E+00 0.17557407E+03</pdfrwt>
<totfact> 0.29818242E+01</totfact>
</mgrwt>
</event>
<event>
13    1  0.2101801E-008  0.1448534E+03  0.7546771E-02  0.1277769E+00
          2   -1    0    0  502    0  0.00000000000E+00  0.00000000000E+00  0.51575564081E+03  0.51575564081E+03  0.00000000000E+00 0. -1.
          2   -1    0    0  503    0 -0.00000000000E+00 -0.00000000000E+00 -0.14428630488E+04  0.14428630488E+04  0.00000000000E+00 0. -1.
         24    2    1    2    0    0 -0.22083593567E+02  0.20485181169E+02 -0.26583016641E+02  0.67275710936E+02  0.53963290817E+02 0.  0.
         25    2    1    2    0    0  0.45008331791E+03  0.20397315663E+03 -0.21033207598E+03  0.55139838753E+03  0.12498223033E+03 0.  0.
         24    2    1    2    0    0 -0.10518122833E+03 -0.72783968034E+02 -0.47763616889E+02  0.15828138057E+03  0.80068942440E+02 0.  0.
        -11    1    3    3    0    0  0.17079538863E+02 -0.91750730612E+00 -0.87796166835E+01  0.19225871542E+02  0.00000000000E+00 0.  1.
         12    1    3    3    0    0 -0.39163132430E+02  0.21402688475E+02 -0.17803399957E+02  0.48049839394E+02  0.00000000000E+00 0. -1.
        -13    1    5    5    0    0 -0.20960083853E+02 -0.53235743462E+02  0.42680939485E+01  0.57372346327E+02  0.00000000000E+00 0.  1.
         14    1    5    5    0    0 -0.84221144472E+02 -0.19548224572E+02 -0.52031710837E+02  0.10090903425E+03  0.00000000000E+00 0. -1.
          5    1    4    4  501    0  0.69384925000E+01 -0.11504002272E+02  0.27978933201E+01  0.14505273299E+02  0.47000000000E+01 0.  1.
         -5    1    4    4    0  501  0.44314482541E+03  0.21547715890E+03 -0.21312996930E+03  0.53689311423E+03  0.47000000000E+01 0.  1.
          1    1    1    2  502    0 -0.26762049163E+03 -0.10748989551E+03  0.19056578813E+03  0.34567343661E+03  0.00000000000E+00 0. -1.
          1    1    1    2  503    0 -0.55198004387E+02 -0.44184474255E+02 -0.83299448658E+03  0.83598977393E+03  0.00000000000E+00 0. -1.
<mgrwt>
<rscale>  0 0.10121116E+03</rscale>
<asrwt>0</asrwt>
<pdfrwt beam="1">  1        2 0.75846418E-01 0.14485340E+03</pdfrwt>
<pdfrwt beam="2">  1        2 0.21218574E+00 0.70717701E+02</pdfrwt>
<totfact> 0.17415799E+02</totfact>
</mgrwt>
</event>
<event>
13    1  0.2101801E-008  0.5965234E+02  0.7546771E-02  0.1414080E+00
          4   -1    0    0  503    0 -0.00000000000E+00  0.00000000000E+00  0.21104328135E+04  0.21104328135E+04  0.00000000000E+00 0. -1.
          2   -1    0    0  502    0  0.00000000000E+00 -0.00000000000E+00 -0.65943353461E+03  0.65943353461E+03  0.00000000000E+00 0. -1.
         24    2    1    2    0    0  0.56796789800E+02  0.32171053752E+02  0.68803971456E+03  0.69613550841E+03  0.83337537897E+02 0.  0.
         25    2    1    2    0    0 -0.31176555107E+02 -0.64209506493E+01 -0.11432917263E+03  0.17236145805E+03  0.12499642519E+03 0.  0.
         24    2    1    2    0    0 -0.10106230864E+02  0.73595683109E+01  0.14802074706E+03  0.15790674692E+03  0.53554645118E+02 0.  0.
        -13    1    3    3    0    0  0.50649731340E+02 -0.12225722838E+02  0.22607635700E+03  0.23200298010E+03  0.00000000000E+00 0.  1.
         14    1    3    3    0    0  0.61470584598E+01  0.44396776589E+02  0.46196335757E+03  0.46413252831E+03  0.00000000000E+00 0. -1.
        -13    1    5    5    0    0 -0.87023884031E+01  0.23247372824E+02  0.30574280006E+02  0.39382210514E+02  0.00000000000E+00 0.  1.
         14    1    5    5    0    0 -0.14038424605E+01 -0.15887804513E+02  0.11744646706E+03  0.11852453641E+03  0.00000000000E+00 0. -1.
          5    1    4    4  501    0 -0.21255803341E+02  0.47401643328E+02 -0.81220442966E+01  0.52789985503E+02  0.47000000000E+01 0. -1.
         -5    1    4    4    0  501 -0.99207517660E+01 -0.53822593977E+02 -0.10620712834E+03  0.11957147255E+03  0.47000000000E+01 0. -1.
          1    1    1    2  502    0  0.44403727568E+02 -0.29162019037E+02 -0.50497408973E+03  0.50776071695E+03  0.00000000000E+00 0. -1.
          3    1    1    2  503    0 -0.59917731397E+02 -0.39476523762E+01  0.12342420796E+04  0.12357019178E+04  0.00000000000E+00 0. -1.
<mgrwt>
<rscale>  0 0.56293389E+02</rscale>
<asrwt>0</asrwt>
<pdfrwt beam="2">  1        2 0.96975521E-01 0.53123576E+02</pdfrwt>
<pdfrwt beam="1">  1        4 0.31035776E+00 0.59652339E+02</pdfrwt>
<totfact> 0.92173584E-01</totfact>
</mgrwt>
</event>
<event>
13    1  0.2101801E-008  0.1738125E+03  0.7546771E-02  0.1324766E+00
          2   -1    0    0  502    0  0.00000000000E+00  0.00000000000E+00  0.26610558652E+04  0.26610558652E+04  0.00000000000E+00 0. -1.
          4   -1    0    0  503    0 -0.00000000000E+00 -0.00000000000E+00 -0.13533514918E+04  0.13533514918E+04  0.00000000000E+00 0. -1.
         24    2    1    2    0    0 -0.24836798056E+03  0.12838565178E+03 -0.95698799017E+02  0.30722677789E+03  0.84026802687E+02 0.  0.
         25    2    1    2    0    0  0.26002172120E+03 -0.40826252725E+03  0.36406530200E+03  0.61843401229E+03  0.12500998673E+03 0.  0.
         24    2    1    2    0    0  0.36812951318E+02  0.86029302458E+02  0.94852652420E+03  0.95670426965E+03  0.82609068490E+02 0.  0.
        -11    1    3    3    0    0 -0.24248937801E+03  0.12812152194E+03 -0.10707651869E+03  0.29441739706E+03  0.00000000000E+00 0.  1.
         12    1    3    3    0    0 -0.58786025450E+01  0.26412983691E+00  0.11377719671E+02  0.12809380835E+02  0.00000000000E+00 0. -1.
        -13    1    5    5    0    0  0.48288573419E+01 -0.16580531224E+02  0.12037936574E+03  0.12161177399E+03  0.00000000000E+00 0.  1.
         14    1    5    5    0    0  0.31984093976E+02  0.10260983368E+03  0.82814715846E+03  0.83509249566E+03  0.00000000000E+00 0. -1.
          5    1    4    4  501    0  0.18522618701E+03 -0.27672675709E+03  0.17494149124E+03  0.37618220824E+03  0.47000000000E+01 0. -1.
         -5    1    4    4    0  501  0.74795534192E+02 -0.13153577017E+03  0.18912381076E+03  0.24225180405E+03  0.47000000000E+01 0. -1.
          1    1    1    2  502    0  0.17256726685E+02  0.34127863408E+02  0.11037864480E+04  0.11044487441E+04  0.00000000000E+00 0. -1.
          3    1    1    2  503    0 -0.65723418643E+02  0.15971970961E+03 -0.10129751018E+04  0.10275935530E+04  0.00000000000E+00 0. -1.
<mgrwt>
<rscale>  0 0.81529511E+02</rscale>
<asrwt>0</asrwt>
<pdfrwt beam="1">  1        2 0.39133175E+00 0.38242721E+02</pdfrwt>
<pdfrwt beam="2">  1        4 0.19902228E+00 0.17381245E+03</pdfrwt>
<totfact> 0.38715740E-01</totfact>
</mgrwt>
</event>
<event>
13    1  0.2101801E-008  0.9325177E+02  0.7546771E-02  0.1460232E+00
         -1   -1    0    0    0  501 -0.00000000000E+00  0.00000000000E+00  0.13464203715E+03  0.13464203715E+03  0.00000000000E+00 0.  1.
          2   -1    0    0  503    0  0.00000000000E+00 -0.00000000000E+00 -0.36360250520E+04  0.36360250520E+04  0.00000000000E+00 0. -1.
         24    2    1    2    0    0  0.50130870939E+02  0.12599510669E+02 -0.57667208148E+01  0.95739742919E+02  0.80380292454E+02 0.  0.
         25    2    1    2    0    0 -0.10135565606E+03 -0.10673695477E+03 -0.15341393557E+03  0.24663136051E+03  0.12500178331E+03 0.  0.
         24    2    1    2    0    0  0.24427221062E+02 -0.47228926356E+02 -0.60777632989E+03  0.61549649746E+03  0.81342550965E+02 0.  0.
        -11    1    3    3    0    0  0.20588238431E+02 -0.32433830962E+02 -0.14723359402E+02  0.41141296341E+02  0.00000000000E+00 0.  1.
         12    1    3    3    0    0  0.29542632508E+02  0.45033341631E+02  0.89566385877E+01  0.54598446578E+02  0.00000000000E+00 0. -1.
        -13    1    5    5    0    0  0.49264956050E+02 -0.47783974999E+02 -0.51072301473E+03  0.51531382859E+03  0.00000000000E+00 0.  1.
         14    1    5    5    0    0 -0.24837734989E+02  0.55504864377E+00 -0.97053315164E+02  0.10018266887E+03  0.00000000000E+00 0. -1.
          5    1    4    4  502    0  0.25569819354E+02 -0.12894859227E+02 -0.50166287521E+02  0.57955495511E+02  0.47000000000E+01 0. -1.
         -5    1    4    4    0  502 -0.12692547541E+03 -0.93842095545E+02 -0.10324764805E+03  0.18867586500E+03  0.47000000000E+01 0. -1.
          1    1    1    2  503    0  0.78617041398E+01  0.12656554262E+03 -0.27683344613E+04  0.27712373288E+04  0.00000000000E+00 0. -1.
         -2    1    1    2    0  501  0.18935859919E+02  0.14800827838E+02  0.33908432675E+02  0.41562159497E+02  0.00000000000E+00 0.  1.
<mgrwt>
<rscale>  0 0.47341414E+02</rscale>
<asrwt>0</asrwt>
<pdfrwt beam="2">  1        2 0.53470951E+00 0.93251773E+02</pdfrwt>
<pdfrwt beam="1">  1       -1 0.19800301E-01 0.24033961E+02</pdfrwt>
<totfact> 0.27051287E+01</totfact>
</mgrwt>
</event>
<event>
13    1  0.2101801E-008  0.1581115E+03  0.7546771E-02  0.1279858E+00
          2   -1    0    0  503    0  0.00000000000E+00  0.00000000000E+00  0.11610682044E+04  0.11610682044E+04  0.00000000000E+00 0. -1.
         -3   -1    0    0    0  501 -0.00000000000E+00 -0.00000000000E+00 -0.13295002411E+04  0.13295002411E+04  0.00000000000E+00 0.  1.
         24    2    1    2    0    0 -0.10900852987E+03  0.19800776498E+03 -0.33191539368E+03  0.40975327259E+03  0.81486080162E+02 0.  0.
         25    2    1    2    0    0  0.34943154573E+03 -0.17973413224E+03  0.14406323773E+03  0.43679004188E+03  0.12499824308E+03 0.  0.
         24    2    1    2    0    0 -0.61198547811E+02  0.27041717382E+02  0.18684528151E+03  0.21419179256E+03  0.80563316986E+02 0.  0.
        -11    1    5    5    0    0 -0.29158411689E+01  0.43934907901E+02  0.80042130783E+02  0.91353822921E+02  0.00000000000E+00 0.  1.
         12    1    5    5    0    0 -0.58282706642E+02 -0.16893190519E+02  0.10680315073E+03  0.12283796964E+03  0.00000000000E+00 0. -1.
        -13    1    3    3    0    0 -0.41170977905E+02  0.31731435001E+02 -0.12732852612E+03  0.13752994930E+03  0.00000000000E+00 0.  1.
         14    1    3    3    0    0 -0.67837551961E+02  0.16627632998E+03 -0.20458686755E+03  0.27222332329E+03  0.00000000000E+00 0. -1.
          5    1    4    4  502    0  0.17636937782E+03 -0.81499207929E+02  0.13668516386E+03  0.23759882648E+03  0.47000000000E+01 0.  1.
         -5    1    4    4    0  502  0.17306216791E+03 -0.98234924314E+02  0.73780738725E+01  0.19919121540E+03  0.47000000000E+01 0.  1.
          1    1    1    2  503    0 -0.23569200266E+02 -0.58975083774E+02  0.62192856018E+03  0.62516294010E+03  0.00000000000E+00 0. -1.
         -4    1    1    2    0  501 -0.15565526779E+03  0.13659733651E+02 -0.78935372254E+03  0.80467039837E+03  0.00000000000E+00 0.  1.
<mgrwt>
<rscale>  0 0.10020839E+03</rscale>
<asrwt>0</asrwt>
<pdfrwt beam="1">  1        2 0.17074532E+00 0.63510375E+02</pdfrwt>
<pdfrwt beam="2">  1       -3 0.19551474E+00 0.15811151E+03</pdfrwt>
<totfact> 0.26055309E+00</totfact>
</mgrwt>
</event>
<event>
13    1  0.2101801E-008  0.1589981E+03  0.7546771E-02  0.1396347E+00
          2   -1    0    0  502    0  0.00000000000E+00  0.00000000000E+00  0.17286307026E+04  0.17286307026E+04  0.00000000000E+00 0. -1.
          2   -1    0    0  503    0 -0.00000000000E+00 -0.00000000000E+00 -0.35084538873E+04  0.35084538873E+04  0.00000000000E+00 0. -1.
         24    2    1    2    0    0  0.70138460928E+02  0.51933371123E+02 -0.33243334219E+04  0.33263834445E+04  0.77573456147E+02 0.  0.
         25    2    1    2    0    0  0.60826583210E+02 -0.25820956648E+03  0.47877237510E+03  0.56144598747E+03  0.12500622483E+03 0.  0.
         24    2    1    2    0    0  0.66939499125E+01  0.63870639706E+02 -0.78394992243E+01  0.10353971901E+03  0.80837788699E+02 0.  0.
        -11    1    3    3    0    0  0.36710053358E+02 -0.23445007862E+01 -0.50858848464E+03  0.50991702404E+03  0.00000000000E+00 0.  1.
         12    1    3    3    0    0  0.33428407570E+02  0.54277871909E+02 -0.28157449373E+04  0.28164664205E+04  0.00000000000E+00 0. -1.
        -11    1    5    5    0    0 -0.22593533080E+02  0.53670135088E+02  0.20294457336E+02  0.61666977678E+02  0.00000000000E+00 0.  1.
         12    1    5    5    0    0  0.29287482993E+02  0.10200504618E+02 -0.28133956561E+02  0.41872741327E+02  0.00000000000E+00 0. -1.
          5    1    4    4  501    0  0.48947538673E+02 -0.21547509553E+03  0.46485677918E+03  0.51472254030E+03  0.47000000000E+01 0. -1.
         -5    1    4    4    0  501  0.11879044536E+02 -0.42734470949E+02  0.13915595913E+02  0.46723447176E+02  0.47000000000E+01 0. -1.
          1    1    1    2  502    0 -0.14487185277E+03  0.16415125590E+03  0.11475642568E+04  0.11682624757E+04  0.00000000000E+00 0. -1.
          1    1    1    2  503    0  0.72128587190E+01 -0.21745700248E+02 -0.73986895535E+02  0.77452963281E+02  0.00000000000E+00 0. -1.
<mgrwt>
<rscale>  0 0.60355283E+02</rscale>
<asrwt>0</asrwt>
<pdfrwt beam="1">  1        2 0.25421040E+00 0.15899811E+03</pdfrwt>
<pdfrwt beam="2">  1        2 0.51594910E+00 0.22910714E+02</pdfrwt>
<totfact> 0.37423923E+00</totfact>
</mgrwt>
</event>
<event>
13    1  0.2101801E-008  0.1507974E+03  0.7546771E-02  0.1255809E+00
          4   -1    0    0  503    0 -0.00000000000E+00  0.00000000000E+00  0.79286406597E+03  0.79286406597E+03  0.00000000000E+00 0. -1.
          2   -1    0    0  502    0  0.00000000000E+00 -0.00000000000E+00 -0.26512486282E+04  0.26512486282E+04  0.00000000000E+00 0. -1.
         24    2    1    2    0    0 -0.80464407674E+02  0.22521877323E+01  0.27562387170E+03  0.29810980842E+03  0.80133301268E+02 0.  0.
         25    2    1    2    0    0  0.74698374402E+02  0.29051084297E+02 -0.39788071005E+03  0.42468341986E+03  0.12499253993E+03 0.  0.
         24    2    1    2    0    0 -0.64338347678E+02 -0.34608083440E+02  0.91410338270E+02  0.14184017778E+03  0.80160112699E+02 0.  0.
        -11    1    3    3    0    0  0.11706460463E+02  0.71695688366E+01  0.10221409611E+02  0.17114939331E+02  0.00000000000E+00 0.  1.
         12    1    3    3    0    0 -0.92170868137E+02 -0.49173811043E+01  0.26540246209E+03  0.28099486909E+03  0.00000000000E+00 0. -1.
        -13    1    5    5    0    0  0.12322374789E+01 -0.42376060858E+02  0.37463026105E+02  0.56574970332E+02  0.00000000000E+00 0.  1.
         14    1    5    5    0    0 -0.65570585157E+02  0.77679774179E+01  0.53947312165E+02  0.85265207446E+02  0.00000000000E+00 0. -1.
          5    1    4    4  501    0  0.58831114162E+01  0.13045739005E+02 -0.31630337200E+03  0.31666183137E+03  0.47000000000E+01 0. -1.
         -5    1    4    4    0  501  0.68815262986E+02  0.16005345292E+02 -0.81577338047E+02  0.10802158849E+03  0.47000000000E+01 0. -1.
          1    1    1    2  502    0  0.14942920302E+03 -0.24615542206E+02 -0.21961656484E+04  0.22013810590E+04  0.00000000000E+00 0. -1.
          3    1    1    2  503    0 -0.79324822068E+02  0.27920353616E+02  0.36862758624E+03  0.37809822914E+03  0.00000000000E+00 0. -1.
<mgrwt>
<rscale>  0 0.11261132E+03</rscale>
<asrwt>0</asrwt>
<pdfrwt beam="2">  1        2 0.38988950E+00 0.15079738E+03</pdfrwt>
<pdfrwt beam="1">  1        4 0.11659766E+00 0.84095027E+02</pdfrwt>
<totfact> 0.12686224E+00</totfact>
</mgrwt>
</event>
<event>
13    1  0.2101801E-008  0.1171277E+03  0.7546771E-02  0.1371962E+00
          2   -1    0    0  502    0  0.00000000000E+00  0.00000000000E+00  0.40065990369E+04  0.40065990369E+04  0.00000000000E+00 0. -1.
          2   -1    0    0  503    0 -0.00000000000E+00 -0.00000000000E+00 -0.72452225130E+03  0.72452225130E+03  0.00000000000E+00 0. -1.
         24    2    1    2    0    0  0.17165026472E+03 -0.13231644373E+03 -0.22347362947E+03  0.31996744673E+03  0.73940849590E+02 0.  0.
         25    2    1    2    0    0 -0.23899253272E+03  0.20343991574E+03  0.11193235614E+04  0.11691945914E+04  0.12500211019E+03 0.  0.
         24    2    1    2    0    0 -0.11756300893E+02 -0.84260391908E+02  0.73937821381E+02  0.13470242368E+03  0.73755794747E+02 0.  0.
        -11    1    5    5    0    0  0.14673318092E+02 -0.80782558521E+02  0.69721506202E+02  0.10771358527E+03  0.00000000000E+00 0.  1.
         12    1    5    5    0    0 -0.26429618985E+02 -0.34778333869E+01  0.42163151785E+01  0.26988838405E+02  0.00000000000E+00 0. -1.
        -11    1    3    3    0    0  0.59652752870E+02 -0.13793524320E+02 -0.34180467969E+02  0.70121442004E+02  0.00000000000E+00 0.  1.
         12    1    3    3    0    0  0.11199751185E+03 -0.11852291941E+03 -0.18929316150E+03  0.24984600473E+03  0.00000000000E+00 0. -1.
          5    1    4    4  501    0 -0.79351208379E+02  0.41511311790E+02  0.52948602347E+03  0.53702638886E+03  0.47000000000E+01 0.  1.
         -5    1    4    4    0  501 -0.15964132435E+03  0.16192860395E+03  0.58983753789E+03  0.63216820255E+03  0.47000000000E+01 0.  1.
          1    1    1    2  502    0 -0.35545932402E+02 -0.13142311615E+02  0.27009361305E+04  0.27012019944E+04  0.00000000000E+00 0. -1.
          1    1    1    2  503    0  0.11464450130E+03  0.26279231520E+02 -0.38864709814E+03  0.40605483199E+03  0.00000000000E+00 0. -1.
<mgrwt>
<rscale>  0 0.66624819E+02</rscale>
<asrwt>0</asrwt>
<pdfrwt beam="1">  1        2 0.58920573E+00 0.37897674E+02</pdfrwt>
<pdfrwt beam="2">  1        2 0.10654739E+00 0.11712768E+03</pdfrwt>
<totfact> 0.61543207E+00</totfact>
</mgrwt>
</event>
<event>
13    1  0.2101801E-008  0.1226822E+03  0.7546771E-02  0.1264420E+00
          2   -1    0    0  503    0  0.00000000000E+00  0.00000000000E+00  0.35273390889E+04  0.35273390889E+04  0.00000000000E+00 0. -1.
          2   -1    0    0  502    0 -0.00000000000E+00 -0.00000000000E+00 -0.15515379786E+04  0.15515379786E+04  0.00000000000E+00 0. -1.
         24    2    1    2    0    0 -0.96279001595E+02  0.13266948454E+03 -0.60324070825E+03  0.63019990446E+03  0.79885726003E+02 0.  0.
         25    2    1    2    0    0  0.13419740638E+03  0.37285735887E+02  0.56720072394E+03  0.59727845319E+03  0.12500287767E+03 0.  0.
         24    2    1    2    0    0 -0.11974507851E+03 -0.11648694027E+03  0.37959523370E+03  0.42245673769E+03  0.80430483575E+02 0.  0.
        -13    1    3    3    0    0 -0.10676445776E+03  0.93909770639E+02 -0.46751862205E+03  0.48866282488E+03  0.00000000000E+00 0.  1.
         14    1    3    3    0    0  0.10485456165E+02  0.38759713898E+02 -0.13572208620E+03  0.14153707958E+03  0.00000000000E+00 0. -1.
        -13    1    5    5    0    0 -0.70406134529E+02 -0.11338387360E+03  0.30552301341E+03  0.33340251693E+03  0.00000000000E+00 0.  1.
         14    1    5    5    0    0 -0.49338943976E+02 -0.31030666648E+01  0.74072220292E+02  0.89054220755E+02  0.00000000000E+00 0. -1.
          5    1    4    4  501    0  0.10634971313E+03  0.80089699343E+02  0.45103916996E+03  0.47030101452E+03  0.47000000000E+01 0.  1.
         -5    1    4    4    0  501  0.27847693247E+02 -0.42803963456E+02  0.11616155398E+03  0.12697743867E+03  0.47000000000E+01 0.  1.
          1    1    1    2  502    0  0.11803768272E+03  0.34339086585E+02 -0.89324564100E+03  0.90166503901E+03  0.00000000000E+00 0. -1.
          1    1    1    2  503    0 -0.36211008994E+02 -0.87807366741E+02  0.25254915019E+04  0.25272769332E+04  0.00000000000E+00 0. -1.
<mgrwt>
<rscale>  0 0.10794657E+03</rscale>
<asrwt>0</asrwt>
<pdfrwt beam="1">  1        2 0.51872634E+00 0.94980897E+02</pdfrwt>
<pdfrwt beam="2">  1        2 0.22816735E+00 0.12268216E+03</pdfrwt>
<totfact> 0.34221515E+00</totfact>
</mgrwt>
</event>
<event>
13    1  0.2101801E-008  0.1381096E+03  0.7546771E-02  0.1233771E+00
          2   -1    0    0  502    0  0.00000000000E+00  0.00000000000E+00  0.10469670039E+04  0.10469670039E+04  0.00000000000E+00 0. -1.
          2   -1    0    0  503    0 -0.00000000000E+00 -0.00000000000E+00 -0.59538737350E+03  0.59538737350E+03  0.00000000000E+00 0. -1.
         24    2    1    2    0    0 -0.47961766995E+02 -0.14574123011E+02 -0.11431351008E+03  0.14900448424E+03  0.81375804639E+02 0.  0.
         25    2    1    2    0    0  0.39572338383E+02 -0.44882098564E+02  0.23036270369E+03  0.26883541004E+03  0.12500051880E+03 0.  0.
         24    2    1    2    0    0  0.10695792534E+03  0.60198994550E+02 -0.22673137487E+02  0.14897684148E+03  0.81339482388E+02 0.  0.
        -13    1    3    3    0    0 -0.20824049375E+02 -0.37954662152E+02 -0.10253090501E+03  0.11129592937E+03  0.00000000000E+00 0.  1.
         14    1    3    3    0    0 -0.27137717620E+02  0.23380539141E+02 -0.11782605071E+02  0.37708554870E+02  0.00000000000E+00 0. -1.
        -13    1    5    5    0    0  0.33999464681E+02 -0.13688472533E+02 -0.26242334908E+02  0.45077688719E+02  0.00000000000E+00 0.  1.
         14    1    5    5    0    0  0.72958460664E+02  0.73887467083E+02  0.35691974205E+01  0.10389915276E+03  0.00000000000E+00 0. -1.
          5    1    4    4  501    0  0.69639433935E+02 -0.61831433941E+02  0.20660054021E+03  0.22666859111E+03  0.47000000000E+01 0. -1.
         -5    1    4    4    0  501 -0.30067095552E+02  0.16949335377E+02  0.23762163486E+02  0.42166818924E+02  0.47000000000E+01 0. -1.
          1    1    1    2  502    0 -0.60608787643E+02  0.12396880815E+03  0.69804376364E+03  0.71155237789E+03  0.00000000000E+00 0. -1.
          1    1    1    2  503    0 -0.37959709090E+02 -0.12471158112E+03 -0.33984018932E+03  0.36398526379E+03  0.00000000000E+00 0. -1.
<mgrwt>
<rscale>  0 0.12583419E+03</rscale>
<asrwt>0</asrwt>
<pdfrwt beam="1">  1        2 0.15396574E+00 0.13810964E+03</pdfrwt>
<pdfrwt beam="2">  1        2 0.87556966E-01 0.11464981E+03</pdfrwt>
<totfact> 0.23090985E+02</totfact>
</mgrwt>
</event>
<event>
13    1  0.2101801E-008  0.1372416E+03  0.7546771E-02  0.1431372E+00
          2   -1    0    0  503    0  0.00000000000E+00  0.00000000000E+00  0.17917219047E+04  0.17917219047E+04  0.00000000000E+00 0. -1.
          2   -1    0    0  502    0 -0.00000000000E+00 -0.00000000000E+00 -0.98980732870E+03  0.98980732870E+03  0.00000000000E+00 0. -1.
         24    2    1    2    0    0 -0.43828115896E+02  0.14401175224E+02 -0.81729689827E+02  0.12340728636E+03  0.80133130080E+02 0.  0.
         25    2    1    2    0    0 -0.20199968798E+03 -0.18274394333E+03  0.11863436963E+04  0.12236156262E+04  0.12499844889E+03 0.  0.
         24    2    1    2    0    0  0.59206726124E+02  0.31435595916E+02 -0.42010808424E+02  0.10962553280E+03  0.75889500650E+02 0.  0.
        -11    1    5    5    0    0  0.17697101941E+02 -0.24194235734E+02 -0.33165039094E+01  0.30158707831E+02  0.00000000000E+00 0.  1.
         12    1    5    5    0    0  0.41509624182E+02  0.55629831650E+02 -0.38694304515E+02  0.79466824972E+02  0.00000000000E+00 0. -1.
        -11    1    3    3    0    0 -0.18986772442E+02 -0.27341417753E+02 -0.63176673487E+02  0.71409682295E+02  0.00000000000E+00 0.  1.
         12    1    3    3    0    0 -0.24841343454E+02  0.41742592977E+02 -0.18553016339E+02  0.51997604064E+02  0.00000000000E+00 0. -1.
          5    1    4    4  501    0 -0.62321806873E+02  0.79351012508E+01  0.22819897660E+03  0.23673579443E+03  0.47000000000E+01 0.  1.
         -5    1    4    4    0  501 -0.13967788111E+03 -0.19067904458E+03  0.95814471970E+03  0.98687983180E+03  0.47000000000E+01 0.  1.
          1    1    1    2  502    0  0.16750688063E+03  0.14351914591E+03 -0.77723948932E+03  0.80793410874E+03  0.00000000000E+00 0. -1.
          1    1    1    2  503    0  0.19114197125E+02 -0.66119737292E+01  0.51655086727E+03  0.51694667927E+03  0.00000000000E+00 0. -1.
<mgrwt>
<rscale>  0 0.52685663E+02</rscale>
<asrwt>0</asrwt>
<pdfrwt beam="1">  1        2 0.26348852E+00 0.20225497E+02</pdfrwt>
<pdfrwt beam="2">  1        2 0.14555990E+00 0.13724157E+03</pdfrwt>
<totfact> 0.62069238E+01</totfact>
</mgrwt>
</event>
<event>
13    1  0.2101801E-008  0.1767729E+03  0.7546771E-02  0.1234837E+00
          2   -1    0    0  502    0  0.00000000000E+00  0.00000000000E+00  0.33014649442E+04  0.33014649442E+04  0.00000000000E+00 0. -1.
          2   -1    0    0  503    0 -0.00000000000E+00 -0.00000000000E+00 -0.17641986582E+04  0.17641986582E+04  0.00000000000E+00 0. -1.
         24    2    1    2    0    0  0.43357137553E+03 -0.23467292595E+03 -0.38007373130E+03  0.62830883851E+03  0.85208189026E+02 0.  0.
         25    2    1    2    0    0 -0.62216581900E+03  0.34663494834E+03  0.73731424516E+03  0.10327171431E+04  0.12500523093E+03 0.  0.
         24    2    1    2    0    0  0.16680244827E+03 -0.26135280435E+02  0.77962156364E+03  0.80181602187E+03  0.81197541879E+02 0.  0.
        -11    1    5    5    0    0  0.70111198479E+02  0.29191565848E+02  0.31717426699E+03  0.32613991370E+03  0.00000000000E+00 0.  1.
         12    1    5    5    0    0  0.96691249786E+02 -0.55326846283E+02  0.46244729665E+03  0.47567610817E+03  0.00000000000E+00 0. -1.
        -11    1    3    3    0    0  0.12681743124E+03 -0.10517108117E+03 -0.96389819948E+02  0.19087853356E+03  0.00000000000E+00 0.  1.
         12    1    3    3    0    0  0.30675394428E+03 -0.12950184477E+03 -0.28368391135E+03  0.43743030495E+03  0.00000000000E+00 0. -1.
          5    1    4    4  501    0 -0.83471355270E+02  0.17385342059E+02  0.13749698978E+03  0.16185558213E+03  0.47000000000E+01 0. -1.
         -5    1    4    4    0  501 -0.53869446373E+03  0.32924960628E+03  0.59981725539E+03  0.87086156095E+03  0.47000000000E+01 0. -1.
          1    1    1    2  502    0 -0.18723749405E+02  0.86599625653E+02  0.14931689642E+04  0.14957953168E+04  0.00000000000E+00 0. -1.
          1    1    1    2  503    0  0.40515744609E+02 -0.17242636761E+03 -0.10927647557E+04  0.11070262821E+04  0.00000000000E+00 0. -1.
<mgrwt>
<rscale>  0 0.12514869E+03</rscale>
<asrwt>0</asrwt>
<pdfrwt beam="1">  1        2 0.48550955E+00 0.88600643E+02</pdfrwt>
<pdfrwt beam="2">  1        2 0.25944098E+00 0.17677291E+03</pdfrwt>
<totfact> 0.35585221E+00</totfact>
</mgrwt>
</event>
<event>
13    1  0.2101801E-008  0.7786699E+02  0.7546771E-02  0.1336929E+00
          2   -1    0    0  502    0  0.00000000000E+00  0.00000000000E+00  0.49820244570E+03  0.49820244570E+03  0.00000000000E+00 0. -1.
          2   -1    0    0  503    0 -0.00000000000E+00 -0.00000000000E+00 -0.19883336962E+04  0.19883336962E+04  0.00000000000E+00 0. -1.
         24    2    1    2    0    0  0.47757723216E+01 -0.20091386855E+02 -0.37115874963E+03  0.37908154138E+03  0.74280049556E+02 0.  0.
         25    2    1    2    0    0  0.84940574356E+02 -0.10898594646E+03  0.78357784131E+02  0.20213438215E+03  0.12500211364E+03 0.  0.
         24    2    1    2    0    0  0.36165759620E+02  0.21902011248E+02  0.18215621575E+03  0.20523578692E+03  0.84576480351E+02 0.  0.
        -11    1    3    3    0    0  0.30616400880E+01 -0.48481341740E+02 -0.22578520974E+03  0.23095188909E+03  0.00000000000E+00 0.  1.
         12    1    3    3    0    0  0.17141322336E+01  0.28389954885E+02 -0.14537353989E+03  0.14812965229E+03  0.00000000000E+00 0. -1.
        -13    1    5    5    0    0 -0.86440668715E+01 -0.26806453495E+02  0.60727782881E+02  0.66941537588E+02  0.00000000000E+00 0.  1.
         14    1    5    5    0    0  0.44809826491E+02  0.48708464742E+02  0.12142843287E+03  0.13829424933E+03  0.00000000000E+00 0. -1.
          5    1    4    4  501    0 -0.29221702931E+01 -0.36508150450E+02  0.80017818157E+02  0.88126757294E+02  0.47000000000E+01 0.  1.
         -5    1    4    4    0  501  0.87862744649E+02 -0.72477796008E+02 -0.16600340259E+01  0.11400762485E+03  0.47000000000E+01 0.  1.
          1    1    1    2  502    0 -0.71165178297E+02  0.28642732481E+02  0.14953805308E+03  0.16806700463E+03  0.00000000000E+00 0. -1.
          1    1    1    2  503    0 -0.54716928000E+02  0.78532589584E+02 -0.15290245538E+04  0.15320174268E+04  0.00000000000E+00 0. -1.
<mgrwt>
<rscale>  0 0.77287858E+02</rscale>
<asrwt>0</asrwt>
<pdfrwt beam="1">  1        2 0.73265065E-01 0.76713028E+02</pdfrwt>
<pdfrwt beam="2">  1        2 0.29240202E+00 0.77866994E+02</pdfrwt>
<totfact> 0.98959034E+01</totfact>
</mgrwt>
</event>
<event>
13    1  0.2101801E-008  0.4433662E+02  0.7546771E-02  0.1496798E+00
          2   -1    0    0  502    0  0.00000000000E+00  0.00000000000E+00  0.27745177488E+04  0.27745177488E+04  0.00000000000E+00 0. -1.
          2   -1    0    0  503    0 -0.00000000000E+00 -0.00000000000E+00 -0.10690861360E+04  0.10690861360E+04  0.00000000000E+00 0. -1.
         24    2    1    2    0    0  0.95641536850E+02  0.32233788042E+03  0.21932803589E+03  0.41387972263E+03  0.10071059898E+03 0.  0.
         25    2    1    2    0    0  0.12856787893E+03 -0.20091625566E+03  0.54373516437E+03  0.60677045051E+03  0.12500163742E+03 0.  0.
         24    2    1    2    0    0 -0.19762238495E+03 -0.13391912844E+03  0.93393525172E+03  0.96722517386E+03  0.79375957006E+02 0.  0.
        -11    1    5    5    0    0 -0.14180014931E+03 -0.11560273002E+03  0.57180256837E+03  0.60035776894E+03  0.00000000000E+00 0.  1.
         12    1    5    5    0    0 -0.55822235646E+02 -0.18316398412E+02  0.36213268335E+03  0.36686740492E+03  0.00000000000E+00 0. -1.
        -11    1    3    3    0    0  0.82682580462E+02  0.15527436262E+03  0.69664193172E+02  0.18920791900E+03  0.00000000000E+00 0.  1.
         12    1    3    3    0    0  0.12958956388E+02  0.16706351780E+03  0.14966384272E+03  0.22467180363E+03  0.00000000000E+00 0. -1.
          5    1    4    4  501    0  0.53549015112E+02 -0.96178896576E+02  0.11581775056E+03  0.15985530492E+03  0.47000000000E+01 0.  1.
         -5    1    4    4    0  501  0.75018863822E+02 -0.10473735909E+03  0.42791741381E+03  0.44691514559E+03  0.47000000000E+01 0.  1.
          1    1    1    2  502    0 -0.39336309265E+01  0.44269740250E+02  0.93113844345E+03  0.93219852190E+03  0.00000000000E+00 0. -1.
          1    1    1    2  503    0 -0.22653399904E+02 -0.31772236576E+02 -0.92270528268E+03  0.92353001588E+03  0.00000000000E+00 0. -1.
<mgrwt>
<rscale>  0 0.41594069E+02</rscale>
<asrwt>0</asrwt>
<pdfrwt beam="1">  1        2 0.40801732E+00 0.44336618E+02</pdfrwt>
<pdfrwt beam="2">  1        2 0.15721855E+00 0.39021168E+02</pdfrwt>
<totfact> 0.18878659E+01</totfact>
</mgrwt>
</event>
<event>
13    1  0.2101801E-008  0.1225327E+03  0.7546771E-02  0.1285385E+00
          2   -1    0    0  503    0  0.00000000000E+00  0.00000000000E+00  0.10916564774E+04  0.10916564774E+04  0.00000000000E+00 0. -1.
          2   -1    0    0  502    0 -0.00000000000E+00 -0.00000000000E+00 -0.38115879921E+04  0.38115879921E+04  0.00000000000E+00 0. -1.
         24    2    1    2    0    0  0.21421204000E+02 -0.28885156463E+02 -0.33047873640E+03  0.34173368792E+03  0.79199103568E+02 0.  0.
         25    2    1    2    0    0 -0.18155772097E+03  0.21706503265E+03  0.30828066519E+03  0.43673986551E+03  0.12499722855E+03 0.  0.
         24    2    1    2    0    0  0.82928977223E+02 -0.94872545244E+02 -0.20102823700E+03  0.24985504504E+03  0.78340132466E+02 0.  0.
        -11    1    3    3    0    0  0.28692427754E+02 -0.10702800779E+02 -0.38945374413E+02  0.49543390509E+02  0.00000000000E+00 0.  1.
         12    1    3    3    0    0 -0.72712237540E+01 -0.18182355684E+02 -0.29153336198E+03  0.29219029741E+03  0.00000000000E+00 0. -1.
        -13    1    5    5    0    0  0.10362868780E+02 -0.30518154413E+02 -0.11754440152E+03  0.12188286642E+03  0.00000000000E+00 0.  1.
         14    1    5    5    0    0  0.72566108443E+02 -0.64354390831E+02 -0.83483835483E+02  0.12797217862E+03  0.00000000000E+00 0. -1.
          5    1    4    4  501    0 -0.13120831030E+03  0.19639976766E+03  0.17901982643E+03  0.29640964506E+03  0.47000000000E+01 0.  1.
         -5    1    4    4    0  501 -0.50349410675E+02  0.20665264985E+02  0.12926083877E+03  0.14033022045E+03  0.47000000000E+01 0.  1.
          1    1    1    2  502    0  0.15693337329E+02 -0.14089091720E+03 -0.31820331584E+04  0.31851894061E+04  0.00000000000E+00 0. -1.
          1    1    1    2  503    0  0.61514202420E+02  0.47583586262E+02  0.68532795191E+03  0.68972646495E+03  0.00000000000E+00 0. -1.
<mgrwt>
<rscale>  0 0.97618555E+02</rscale>
<asrwt>0</asrwt>
<pdfrwt beam="1">  1        2 0.16053772E+00 0.77770141E+02</pdfrwt>
<pdfrwt beam="2">  1        2 0.56052765E+00 0.12253266E+03</pdfrwt>
<totfact> 0.38800877E+00</totfact>
</mgrwt>
</event>
<event>
13    1  0.2101801E-008  0.2071775E+03  0.7546771E-02  0.1345948E+00
          2   -1    0    0  503    0  0.00000000000E+00  0.00000000000E+00  0.13440479258E+04  0.13440479258E+04  0.00000000000E+00 0. -1.
          2   -1    0    0  502    0 -0.00000000000E+00 -0.00000000000E+00 -0.32337731698E+04  0.32337731698E+04  0.00000000000E+00 0. -1.
         24    2    1    2    0    0  0.78266149676E+03  0.78746445635E+02 -0.14883699294E+04  0.16853573457E+04  0.80151824662E+02 0.  0.
         25    2    1    2    0    0 -0.48198982284E+03 -0.59841778606E+03  0.11415552142E+03  0.78681164399E+03  0.12499217597E+03 0.  0.
         24    2    1    2    0    0 -0.15711934981E+03  0.62953486365E+03  0.33264346127E+03  0.73166059268E+03  0.60621084692E+02 0.  0.
        -13    1    5    5    0    0 -0.10653767839E+03  0.51168458645E+03  0.25274367059E+03  0.58056072547E+03  0.00000000000E+00 0.  1.
         14    1    5    5    0    0 -0.50581671423E+02  0.11785027720E+03  0.79899790682E+02  0.15109986721E+03  0.00000000000E+00 0. -1.
        -13    1    3    3    0    0  0.22605828598E+03  0.57257112973E+02 -0.46613066110E+03  0.52120870951E+03  0.00000000000E+00 0.  1.
         14    1    3    3    0    0  0.55660321078E+03  0.21489332662E+02 -0.10222392683E+04  0.11641486362E+04  0.00000000000E+00 0. -1.
          5    1    4    4  501    0 -0.45877002259E+03 -0.56674722914E+03  0.13582102721E+03  0.74171544193E+03  0.47000000000E+01 0. -1.
         -5    1    4    4    0  501 -0.23219800253E+02 -0.31670556912E+02 -0.21665505788E+02  0.45096202057E+02  0.47000000000E+01 0. -1.
          1    1    1    2  502    0 -0.16545370329E+03 -0.12508277299E+03 -0.11006845931E+04  0.11200567850E+04  0.00000000000E+00 0. -1.
          1    1    1    2  503    0  0.21901379178E+02  0.15219249754E+02  0.25253029572E+03  0.25393472829E+03  0.00000000000E+00 0. -1.
<mgrwt>
<rscale>  0 0.74333383E+02</rscale>
<asrwt>0</asrwt>
<pdfrwt beam="1">  1        2 0.19765411E+00 0.26670133E+02</pdfrwt>
<pdfrwt beam="2">  1        2 0.47555487E+00 0.20717751E+03</pdfrwt>
<totfact> 0.63246492E+00</totfact>
</mgrwt>
</event>
<event>
13    1  0.2101801E-008  0.1289085E+03  0.7546771E-02  0.1427966E+00
          2   -1    0    0  503    0  0.00000000000E+00  0.00000000000E+00  0.19296263129E+04  0.19296263129E+04  0.00000000000E+00 0. -1.
          2   -1    0    0  502    0 -0.00000000000E+00 -0.00000000000E+00 -0.69712077939E+03  0.69712077939E+03  0.00000000000E+00 0. -1.
         24    2    1    2    0    0  0.13680573171E+02 -0.31258185938E+02  0.18110656888E+03  0.20071534302E+03  0.79516208161E+02 0.  0.
         25    2    1    2    0    0 -0.10480827195E+03 -0.89746198461E+02  0.76281073139E+03  0.78520285841E+03  0.12499665162E+03 0.  0.
         24    2    1    2    0    0  0.48036053298E+02 -0.21192030640E+02  0.11169579111E+03  0.14822748985E+03  0.82090647557E+02 0.  0.
        -13    1    3    3    0    0  0.11734538644E+02  0.22646159307E+02  0.10078972689E+03  0.10396690327E+03  0.00000000000E+00 0.  1.
         14    1    3    3    0    0  0.19460345270E+01 -0.53904345245E+02  0.80316841996E+02  0.96748439754E+02  0.00000000000E+00 0. -1.
        -13    1    5    5    0    0  0.26040696807E+02 -0.51423093333E+02  0.51119415161E+02  0.77043150406E+02  0.00000000000E+00 0.  1.
         14    1    5    5    0    0  0.21995356490E+02  0.30231062694E+02  0.60576375950E+02  0.71184339444E+02  0.00000000000E+00 0. -1.
          5    1    4    4  501    0 -0.80019138979E+02  0.74249686452E+01  0.24944286737E+03  0.26211071486E+03  0.47000000000E+01 0.  1.
         -5    1    4    4    0  501 -0.24789132974E+02 -0.97171167106E+02  0.51336786403E+03  0.52309214355E+03  0.47000000000E+01 0.  1.
          1    1    1    2  502    0 -0.47118729058E+01  0.21588160513E+02 -0.65262546315E+03  0.65299942233E+03  0.00000000000E+00 0. -1.
          1    1    1    2  503    0  0.47803518390E+02  0.12060825453E+03  0.82951790528E+03  0.83960197868E+03  0.00000000000E+00 0. -1.
<mgrwt>
<rscale>  0 0.53370513E+02</rscale>
<asrwt>0</asrwt>
<pdfrwt beam="1">  1        2 0.28376857E+00 0.12890847E+03</pdfrwt>
<pdfrwt beam="2">  1        2 0.10251776E+00 0.22096389E+02</pdfrwt>
<totfact> 0.71710020E+01</totfact>
</mgrwt>
</event>
<event>
13    1  0.2101801E-008  0.1903449E+03  0.7546771E-02  0.1353851E+00
          2   -1    0    0  502    0  0.00000000000E+00  0.00000000000E+00  0.11905603708E+04  0.11905603708E+04  0.00000000000E+00 0. -1.
          2   -1    0    0  503    0 -0.00000000000E+00 -0.00000000000E+00 -0.17969928196E+04  0.17969928196E+04  0.00000000000E+00 0. -1.
         24    2    1    2    0    0 -0.87218942446E+02 -0.12408912965E+03  0.20676805005E+02  0.17463981202E+03  0.84061154280E+02 0.  0.
         25    2    1    2    0    0  0.22627112193E+03  0.19232159351E+03 -0.28431092048E+03  0.42970231981E+03  0.12500067278E+03 0.  0.
         24    2    1    2    0    0  0.95135895859E+01  0.86518692388E+02 -0.91198790070E+01  0.12085592700E+03  0.83348607538E+02 0.  0.
        -11    1    5    5    0    0  0.33250714623E+02  0.82065354402E+02  0.11255082050E+02  0.89258104887E+02  0.00000000000E+00 0.  1.
         12    1    5    5    0    0 -0.23737125037E+02  0.44533379869E+01 -0.20374961057E+02  0.31597822113E+02  0.00000000000E+00 0. -1.
        -11    1    3    3    0    0 -0.49277450525E+02 -0.10402772095E+03  0.46952667638E+02  0.12431647862E+03  0.00000000000E+00 0.  1.
         12    1    3    3    0    0 -0.37941491921E+02 -0.20061408701E+02 -0.26275862633E+02  0.50323333409E+02  0.00000000000E+00 0. -1.
          5    1    4    4  501    0  0.13869004748E+02 -0.17098740116E+02 -0.10763082081E+02  0.24952958585E+02  0.47000000000E+01 0.  1.
         -5    1    4    4    0  501  0.21240211719E+03  0.20942033363E+03 -0.27354783839E+03  0.40474936123E+03  0.47000000000E+01 0.  1.
          1    1    1    2  502    0 -0.12730111090E+03 -0.13789422874E+03  0.95506344648E+03  0.97332757998E+03  0.00000000000E+00 0. -1.
          1    1    1    2  503    0 -0.21264658173E+02 -0.16856927505E+02 -0.12887419009E+04  0.12890275516E+04  0.00000000000E+00 0. -1.
<mgrwt>
<rscale>  0 0.71868816E+02</rscale>
<asrwt>0</asrwt>
<pdfrwt beam="1">  1        2 0.17508241E+00 0.19034492E+03</pdfrwt>
<pdfrwt beam="2">  1        2 0.26426365E+00 0.27135617E+02</pdfrwt>
<totfact> 0.45247629E+01</totfact>
</mgrwt>
</event>
<event>
13    1  0.2101801E-008  0.5403827E+02  0.7546771E-02  0.1514604E+00
          2   -1    0    0  502    0  0.00000000000E+00  0.00000000000E+00  0.18779325876E+04  0.18779325876E+04  0.00000000000E+00 0. -1.
          2   -1    0    0  503    0 -0.00000000000E+00 -0.00000000000E+00 -0.28539664812E+04  0.28539664812E+04  0.00000000000E+00 0. -1.
         24    2    1    2    0    0  0.40895977829E+03  0.26261916793E+03 -0.12202715163E+04  0.13145130821E+04  0.51625012817E+02 0.  0.
         25    2    1    2    0    0 -0.28504916761E+02  0.14986027307E+03 -0.27911452571E+03  0.34175816465E+03  0.12499237144E+03 0.  0.
         24    2    1    2    0    0 -0.33357618038E+03 -0.37985881996E+03 -0.56531477232E+03  0.76228037618E+03  0.76972650245E+02 0.  0.
        -11    1    5    5    0    0 -0.18392647506E+03 -0.23154997282E+03 -0.38142091446E+03  0.48262433852E+03  0.00000000000E+00 0.  1.
         12    1    5    5    0    0 -0.14964970532E+03 -0.14830884714E+03 -0.18389385786E+03  0.27965603766E+03  0.00000000000E+00 0. -1.
        -11    1    3    3    0    0  0.13044943448E+03  0.90806923946E+02 -0.33794654174E+03  0.37345791928E+03  0.00000000000E+00 0.  1.
         12    1    3    3    0    0  0.27851034380E+03  0.17181224399E+03 -0.88232497452E+03  0.94105516281E+03  0.00000000000E+00 0. -1.
          5    1    4    4  501    0  0.20268852912E+01  0.50097529524E+02 -0.21134276618E+03  0.21725958102E+03  0.47000000000E+01 0.  1.
         -5    1    4    4    0  501 -0.30531802052E+02  0.99762743546E+02 -0.67771759530E+02  0.12449858363E+03  0.47000000000E+01 0.  1.
          1    1    1    2  502    0  0.69443162223E+01 -0.27491926750E+02  0.16996952385E+04  0.16999317437E+04  0.00000000000E+00 0. -1.
          1    1    1    2  503    0 -0.53822997369E+02 -0.51286942895E+01 -0.61102831774E+03  0.61341570214E+03  0.00000000000E+00 0. -1.
<mgrwt>
<rscale>  0 0.39144318E+02</rscale>
<asrwt>0</asrwt>
<pdfrwt beam="1">  1        2 0.27616656E+00 0.28355415E+02</pdfrwt>
<pdfrwt beam="2">  1        2 0.41970095E+00 0.54038272E+02</pdfrwt>
<totfact> 0.70790974E+00</totfact>
</mgrwt>
</event>
<event>
13    1  0.2101801E-008  0.7120296E+02  0.7546771E-02  0.1410020E+00
          2   -1    0    0  503    0  0.00000000000E+00  0.00000000000E+00  0.20013887475E+04  0.20013887475E+04  0.00000000000E+00 0. -1.
          2   -1    0    0  502    0 -0.00000000000E+00 -0.00000000000E+00 -0.60697383616E+03  0.60697383616E+03  0.00000000000E+00 0. -1.
         24    2    1    2    0    0 -0.25029129737E+03  0.12843994240E+03 -0.26531178890E+03  0.39470813585E+03  0.79130366076E+02 0.  0.
         25    2    1    2    0    0  0.31280038226E+03 -0.16800202929E+03  0.36042062177E+03  0.52114604664E+03  0.12498566453E+03 0.  0.
         24    2    1    2    0    0 -0.35063372746E+02  0.28221819352E+02  0.31841589291E+03  0.33156010958E+03  0.80731122950E+02 0.  0.
        -11    1    5    5    0    0 -0.37138146522E+02 -0.18237284363E+02  0.20210340337E+03  0.20629499781E+03  0.00000000000E+00 0.  1.
         12    1    5    5    0    0  0.20747737759E+01  0.46459103714E+02  0.11631248954E+03  0.12526511177E+03  0.00000000000E+00 0. -1.
        -13    1    3    3    0    0 -0.24063471490E+03  0.13029657854E+03 -0.22818558459E+03  0.35630173366E+03  0.00000000000E+00 0.  1.
         14    1    3    3    0    0 -0.96565824714E+01 -0.18566361465E+01 -0.37126204307E+02  0.38406402189E+02  0.00000000000E+00 0. -1.
          5    1    4    4  501    0 -0.36590361108E+01 -0.13291330619E+02  0.48419277496E+02  0.50562480636E+02  0.47000000000E+01 0.  1.
         -5    1    4    4    0  501  0.31645941837E+03 -0.15471069867E+03  0.31200134427E+03  0.47058356600E+03  0.47000000000E+01 0.  1.
          1    1    1    2  502    0  0.43832308083E+02  0.13734691647E+02 -0.18614872772E+03  0.19173226598E+03  0.00000000000E+00 0. -1.
          1    1    1    2  503    0 -0.71278020224E+02 -0.23944241014E+01  0.11670389133E+04  0.11692160256E+04  0.00000000000E+00 0. -1.
<mgrwt>
<rscale>  0 0.57189349E+02</rscale>
<asrwt>0</asrwt>
<pdfrwt beam="1">  1        2 0.29432187E+00 0.71202958E+02</pdfrwt>
<pdfrwt beam="2">  1        2 0.89260859E-01 0.45933789E+02</pdfrwt>
<totfact> 0.80355926E+01</totfact>
</mgrwt>
</event>
<event>
13    1  0.2101801E-008  0.1673210E+03  0.7546771E-02  0.1236516E+00
          2   -1    0    0  503    0  0.00000000000E+00  0.00000000000E+00  0.19053066276E+04  0.19053066276E+04  0.00000000000E+00 0. -1.
          2   -1    0    0  502    0 -0.00000000000E+00 -0.00000000000E+00 -0.29554223624E+04  0.29554223624E+04  0.00000000000E+00 0. -1.
         24    2    1    2    0    0  0.57836872949E+02 -0.11117429129E+02 -0.14696966898E+04  0.14730282856E+04  0.79594403616E+02 0.  0.
         25    2    1    2    0    0 -0.20822931968E+03  0.15009359772E+03  0.82816479001E+03  0.87599596302E+03  0.12499788065E+03 0.  0.
         24    2    1    2    0    0 -0.44378476395E+02 -0.52453228504E+02  0.55908267233E+02  0.12003601373E+03  0.81006912663E+02 0.  0.
        -13    1    3    3    0    0  0.62264345873E+02 -0.36390648262E+02 -0.11778794865E+04  0.11800852566E+04  0.00000000000E+00 0.  1.
         14    1    3    3    0    0 -0.44274729243E+01  0.25273219132E+02 -0.29181720332E+03  0.29294302906E+03  0.00000000000E+00 0. -1.
        -13    1    5    5    0    0 -0.59736602667E+02 -0.42820891790E+02  0.66433597179E+02  0.99073272410E+02  0.00000000000E+00 0.  1.
         14    1    5    5    0    0  0.15358126271E+02 -0.96323367137E+01 -0.10525329946E+02  0.20962741319E+02  0.00000000000E+00 0. -1.
          5    1    4    4  501    0 -0.98224676952E+02  0.10226871183E+03  0.26933374506E+03  0.30441703765E+03  0.47000000000E+01 0. -1.
         -5    1    4    4    0  501 -0.11000464273E+03  0.47824885886E+02  0.55883104495E+03  0.57157892537E+03  0.47000000000E+01 0. -1.
          1    1    1    2  502    0  0.14504994470E+03 -0.18943645363E+03 -0.14146662899E+04  0.14346450321E+04  0.00000000000E+00 0. -1.
          1    1    1    2  503    0  0.49720978430E+02  0.10291351354E+03  0.95017418762E+03  0.95702369552E+03  0.00000000000E+00 0. -1.
<mgrwt>
<rscale>  0 0.12407885E+03</rscale>
<asrwt>0</asrwt>
<pdfrwt beam="1">  1        2 0.28019215E+00 0.92012136E+02</pdfrwt>
<pdfrwt beam="2">  1        2 0.43462094E+00 0.16732098E+03</pdfrwt>
<totfact> 0.45266020E+00</totfact>
</mgrwt>
</event>
<event>
13    1  0.2101801E-008  0.1158869E+03  0.7546771E-02  0.1269821E+00
          2   -1    0    0  502    0  0.00000000000E+00  0.00000000000E+00  0.22239943264E+04  0.22239943264E+04  0.00000000000E+00 0. -1.
          2   -1    0    0  503    0 -0.00000000000E+00 -0.00000000000E+00 -0.18808057052E+04  0.18808057052E+04  0.00000000000E+00 0. -1.
         24    2    1    2    0    0 -0.37125252685E+01 -0.25068159330E+02 -0.22848050502E+03  0.24349130454E+03  0.80265053145E+02 0.  0.
         25    2    1    2    0    0 -0.87882283875E+02  0.56356558127E+02  0.89695824180E+03  0.91162375587E+03  0.12499770910E+03 0.  0.
         24    2    1    2    0    0  0.11703851364E+03  0.26461649915E+02 -0.23670888736E+03  0.27737560502E+03  0.80671533481E+02 0.  0.
        -13    1    5    5    0    0  0.26679418859E+02  0.28369018214E+02 -0.13866670846E+03  0.14403141540E+03  0.00000000000E+00 0.  1.
         14    1    5    5    0    0  0.90359094785E+02 -0.19073682994E+01 -0.98042178899E+02  0.13334418963E+03  0.00000000000E+00 0. -1.
        -13    1    3    3    0    0 -0.29371269763E+02 -0.41290952764E+02 -0.17276139847E+03  0.18003920425E+03  0.00000000000E+00 0.  1.
         14    1    3    3    0    0  0.25658744494E+02  0.16222793434E+02 -0.55719106555E+02  0.63452100289E+02  0.00000000000E+00 0. -1.
          5    1    4    4  501    0  0.45202454302E+01  0.68447376949E+02  0.42567759648E+03  0.43119483087E+03  0.47000000000E+01 0. -1.
         -5    1    4    4    0  501 -0.92402529305E+02 -0.12090818822E+02  0.47128064532E+03  0.48042892500E+03  0.47000000000E+01 0. -1.
          1    1    1    2  502    0  0.90187653623E+02  0.31173774034E+02  0.12862387644E+04  0.12897735368E+04  0.00000000000E+00 0. -1.
          1    1    1    2  503    0 -0.11563135812E+03 -0.88923822745E+02 -0.13748189926E+04  0.13825358294E+04  0.00000000000E+00 0. -1.
<mgrwt>
<rscale>  0 0.10515162E+03</rscale>
<asrwt>0</asrwt>
<pdfrwt beam="1">  1        2 0.32705799E+00 0.95410790E+02</pdfrwt>
<pdfrwt beam="2">  1        2 0.27658907E+00 0.11588693E+03</pdfrwt>
<totfact> 0.11527006E+01</totfact>
</mgrwt>
</event>
<event>
13    1  0.2101801E-008  0.1538345E+03  0.7546771E-02  0.1300138E+00
          2   -1    0    0  503    0  0.00000000000E+00  0.00000000000E+00  0.14663082249E+04  0.14663082249E+04  0.00000000000E+00 0. -1.
         -1   -1    0    0    0  501 -0.00000000000E+00 -0.00000000000E+00 -0.12343371834E+04  0.12343371834E+04  0.00000000000E+00 0.  1.
         24    2    1    2    0    0  0.12729222154E+02 -0.31731161313E+01  0.18726954134E+03  0.20295006626E+03  0.77115151052E+02 0.  0.
         25    2    1    2    0    0  0.14867889513E+03  0.55681069155E+02 -0.86423944894E+02  0.21977387376E+03  0.12500264804E+03 0.  0.
         24    2    1    2    0    0 -0.93751795574E+02  0.66756573594E+02 -0.28202527192E+03  0.31534914202E+03  0.81614876606E+02 0.  0.
        -11    1    3    3    0    0 -0.28184245130E+02 -0.19043757590E+02  0.91027478138E+02  0.97175193094E+02  0.00000000000E+00 0.  1.
         12    1    3    3    0    0  0.40913467285E+02  0.15870641459E+02  0.96242063198E+02  0.10577487317E+03  0.00000000000E+00 0. -1.
        -13    1    5    5    0    0 -0.95526680540E+02  0.80125268353E+02 -0.26949997547E+03  0.29694383661E+03  0.00000000000E+00 0.  1.
         14    1    5    5    0    0  0.17748849660E+01 -0.13368694759E+02 -0.12525296448E+02  0.18405305412E+02  0.00000000000E+00 0. -1.
          5    1    4    4  502    0  0.12497526001E+03  0.41823557738E+02 -0.11849896108E+03  0.17729105836E+03  0.47000000000E+01 0. -1.
         -5    1    4    4    0  502  0.23703635126E+02  0.13857511417E+02  0.32075016190E+02  0.42482815402E+02  0.47000000000E+01 0. -1.
          1    1    1    2  503    0  0.46462851225E+02 -0.27486618032E+02  0.11803182896E+04  0.11815521890E+04  0.00000000000E+00 0. -1.
         -2    1    1    2    0  501 -0.11411917294E+03 -0.91777908586E+02 -0.76716757262E+03  0.78102013714E+03  0.00000000000E+00 0.  1.
<mgrwt>
<rscale>  0 0.91129896E+02</rscale>
<asrwt>0</asrwt>
<pdfrwt beam="1">  1        2 0.21563356E+00 0.53984356E+02</pdfrwt>
<pdfrwt beam="2">  1       -1 0.18152017E+00 0.15383453E+03</pdfrwt>
<totfact> 0.47039459E+00</totfact>
</mgrwt>
</event>
<event>
13    1  0.2101801E-008  0.8853369E+02  0.7546771E-02  0.1386850E+00
          2   -1    0    0  503    0  0.00000000000E+00  0.00000000000E+00  0.25915606073E+03  0.25915606073E+03  0.00000000000E+00 0. -1.
         -1   -1    0    0    0  501 -0.00000000000E+00 -0.00000000000E+00 -0.10949611230E+04  0.10949611230E+04  0.00000000000E+00 0.  1.
         24    2    1    2    0    0 -0.60090747445E+02 -0.37309613673E+01 -0.46088911031E+03  0.47187242951E+03  0.81363380799E+02 0.  0.
         25    2    1    2    0    0  0.61985188650E+02  0.14336295258E+03 -0.16275419758E+03  0.25789379029E+03  0.12500071383E+03 0.  0.
         24    2    1    2    0    0  0.11557525056E+02 -0.24320999219E+02  0.39559995194E+02  0.89224929421E+02  0.75306091533E+02 0.  0.
        -13    1    3    3    0    0 -0.48721285011E+02  0.35175879931E+01 -0.10585353514E+03  0.11658090727E+03  0.00000000000E+00 0.  1.
         14    1    3    3    0    0 -0.11369462433E+02 -0.72485493603E+01 -0.35503557517E+03  0.35529152225E+03  0.00000000000E+00 0. -1.
        -13    1    5    5    0    0 -0.26339295576E+01 -0.49415836561E+02  0.33518238484E+02  0.59769012029E+02  0.00000000000E+00 0.  1.
         14    1    5    5    0    0  0.14191454613E+02  0.25094837342E+02  0.60417567105E+01  0.29455917392E+02  0.00000000000E+00 0. -1.
          5    1    4    4  502    0  0.81068500883E+01  0.70091733741E+02  0.77119395589E+00  0.70719565166E+02  0.47000000000E+01 0.  1.
         -5    1    4    4    0  502  0.53878338562E+02  0.73271218838E+02 -0.16352539153E+03  0.18717422513E+03  0.47000000000E+01 0.  1.
          1    1    1    2  503    0 -0.32229106231E+02 -0.75076767050E+02  0.12852519371E+03  0.15229563900E+03  0.00000000000E+00 0. -1.
         -2    1    1    2    0  501  0.18777139970E+02 -0.40234224942E+02 -0.38024694328E+03  0.38283039550E+03  0.00000000000E+00 0.  1.
<mgrwt>
<rscale>  0 0.62696965E+02</rscale>
<asrwt>0</asrwt>
<pdfrwt beam="1">  1        2 0.38111185E-01 0.88533686E+02</pdfrwt>
<pdfrwt beam="2">  1       -1 0.16102369E+00 0.44400156E+02</pdfrwt>
<totfact> 0.54294057E+01</totfact>
</mgrwt>
</event>
<event>
13    1  0.2101801E-008  0.5684922E+02  0.7546771E-02  0.1437942E+00
          2   -1    0    0  502    0  0.00000000000E+00  0.00000000000E+00  0.80612930834E+03  0.80612930834E+03  0.00000000000E+00 0. -1.
          2   -1    0    0  503    0 -0.00000000000E+00 -0.00000000000E+00 -0.24161616677E+04  0.24161616677E+04  0.00000000000E+00 0. -1.
         24    2    1    2    0    0 -0.30405971904E+03 -0.11053076898E+03 -0.21219706928E+03  0.39256242044E+03  0.66394985449E+02 0.  0.
         25    2    1    2    0    0  0.34216666787E+03 -0.19543058082E+03 -0.30359020618E+02  0.41451051730E+03  0.12500463310E+03 0.  0.
         24    2    1    2    0    0 -0.40530138360E+02  0.29438543259E+03 -0.30786398523E+03  0.43536199378E+03  0.80339014104E+02 0.  0.
        -11    1    5    5    0    0 -0.53791883072E+00  0.38128289813E+02 -0.81210664563E+01  0.38987274348E+02  0.00000000000E+00 0.  1.
         12    1    5    5    0    0 -0.39992219529E+02  0.25625714277E+03 -0.29974291878E+03  0.39637471943E+03  0.00000000000E+00 0. -1.
        -11    1    3    3    0    0 -0.93041010771E+02 -0.13461293051E+02 -0.34610399602E+02  0.10017842011E+03  0.00000000000E+00 0.  1.
         12    1    3    3    0    0 -0.21101870827E+03 -0.97069475929E+02 -0.17758666968E+03  0.29238400032E+03  0.00000000000E+00 0. -1.
          5    1    4    4  501    0  0.56499178403E+02 -0.94849132096E+02 -0.86704793639E+01  0.11084124788E+03  0.47000000000E+01 0.  1.
         -5    1    4    4    0  501  0.28566748947E+03 -0.10058144872E+03 -0.21688541255E+02  0.30366926942E+03  0.47000000000E+01 0.  1.
          1    1    1    2  502    0 -0.31683023860E+02 -0.33994797180E+02  0.45841382192E+03  0.46076316299E+03  0.00000000000E+00 0. -1.
          1    1    1    2  503    0  0.34106213389E+02  0.45570714389E+02 -0.15180261062E+04  0.15190928816E+04  0.00000000000E+00 0. -1.
<mgrwt>
<rscale>  0 0.51398276E+02</rscale>
<asrwt>0</asrwt>
<pdfrwt beam="1">  1        2 0.11854843E+00 0.46469993E+02</pdfrwt>
<pdfrwt beam="2">  1        2 0.35531789E+00 0.56849218E+02</pdfrwt>
<totfact> 0.38189119E+01</totfact>
</mgrwt>
</event>
<event>
13    1  0.2101801E-008  0.1055987E+03  0.7546771E-02  0.1376751E+00
          2   -1    0    0  503    0  0.00000000000E+00  0.00000000000E+00  0.24320935363E+04  0.24320935363E+04  0.00000000000E+00 0. -1.
          2   -1    0    0  502    0 -0.00000000000E+00 -0.00000000000E+00 -0.18305901563E+04  0.18305901563E+04  0.00000000000E+00 0. -1.
         24    2    1    2    0    0 -0.61013973650E+03 -0.16620895574E+02 -0.10508952297E+03  0.62467804055E+03  0.81437671099E+02 0.  0.
         25    2    1    2    0    0 -0.33768410161E+01 -0.15184172859E+03 -0.19093575755E+03  0.27412506828E+03  0.12498310267E+03 0.  0.
         24    2    1    2    0    0  0.47694704741E+03  0.16189132125E+03  0.41776185894E+03  0.65949115600E+03  0.81953206944E+02 0.  0.
        -13    1    5    5    0    0  0.32893261698E+03  0.13251494247E+03  0.25023241651E+03  0.43401974467E+03  0.00000000000E+00 0.  1.
         14    1    5    5    0    0  0.14801443043E+03  0.29376378778E+02  0.16752944244E+03  0.22547141133E+03  0.00000000000E+00 0. -1.
        -13    1    3    3    0    0 -0.21811380127E+03 -0.41115608666E+02 -0.55335010347E+02  0.22874896055E+03  0.00000000000E+00 0.  1.
         14    1    3    3    0    0 -0.39202593523E+03  0.24494713093E+02 -0.49754512624E+02  0.39592908000E+03  0.00000000000E+00 0. -1.
          5    1    4    4  501    0 -0.40307307019E+02 -0.95044238723E+02 -0.44130118068E+02  0.11237278867E+03  0.47000000000E+01 0.  1.
         -5    1    4    4    0  501  0.36930466003E+02 -0.56797489864E+02 -0.14680563948E+03  0.16175227961E+03  0.47000000000E+01 0.  1.
          1    1    1    2  502    0  0.34649693519E+02 -0.20796960274E+02 -0.11101945128E+04  0.11109297777E+04  0.00000000000E+00 0. -1.
          1    1    1    2  503    0  0.10191983659E+03  0.27368263184E+02  0.15899613144E+04  0.15934596500E+04  0.00000000000E+00 0. -1.
<mgrwt>
<rscale>  0 0.65325597E+02</rscale>
<asrwt>0</asrwt>
<pdfrwt beam="1">  1        2 0.35766081E+00 0.10559866E+03</pdfrwt>
<pdfrwt beam="2">  1        2 0.26920444E+00 0.40411815E+02</pdfrwt>
<totfact> 0.10575106E+01</totfact>
</mgrwt>
</event>
<event>
13    1  0.2101801E-008  0.7682874E+02  0.7546771E-02  0.1474878E+00
         -1   -1    0    0    0  501 -0.00000000000E+00  0.00000000000E+00  0.56780066497E+03  0.56780066497E+03  0.00000000000E+00 0.  1.
          2   -1    0    0  503    0  0.00000000000E+00 -0.00000000000E+00 -0.19306338177E+04  0.19306338177E+04  0.00000000000E+00 0. -1.
         24    2    1    2    0    0 -0.34508503891E+02  0.91016604033E+02  0.17457166123E+03  0.21482323444E+03  0.78733081380E+02 0.  0.
         25    2    1    2    0    0  0.23805118245E+03 -0.17305525791E+03 -0.10699756519E+04  0.11167316832E+04  0.12500107571E+03 0.  0.
         24    2    1    2    0    0 -0.19983345510E+03  0.26487128433E+02 -0.20955685850E+03  0.30151634789E+03  0.79768749212E+02 0.  0.
        -11    1    3    3    0    0 -0.16648384136E+02  0.10245967494E+03  0.14911248818E+03  0.18168568412E+03  0.00000000000E+00 0.  1.
         12    1    3    3    0    0 -0.17860119755E+02 -0.11443070905E+02  0.25459173044E+02  0.33137550323E+02  0.00000000000E+00 0. -1.
        -13    1    5    5    0    0 -0.19689890036E+03  0.11028820048E+02 -0.20640144739E+03  0.28546868361E+03  0.00000000000E+00 0.  1.
         14    1    5    5    0    0 -0.29345547382E+01  0.15458308386E+02 -0.31554111078E+01  0.16047664282E+02  0.00000000000E+00 0. -1.
          5    1    4    4  502    0  0.69612598786E+02 -0.45305930657E+02 -0.53590112023E+03  0.54231968609E+03  0.47000000000E+01 0.  1.
         -5    1    4    4    0  502  0.16843858366E+03 -0.12774932725E+03 -0.53407453164E+03  0.57441199711E+03  0.47000000000E+01 0.  1.
          1    1    1    2  503    0  0.19257256697E+02 -0.17848879816E+02 -0.55643476440E+03  0.55705392152E+03  0.00000000000E+00 0. -1.
         -2    1    1    2    0  501 -0.22966480156E+02  0.73400405259E+02  0.29856246086E+03  0.30830929557E+03  0.00000000000E+00 0.  1.
<mgrwt>
<rscale>  0 0.44914185E+02</rscale>
<asrwt>0</asrwt>
<pdfrwt beam="2">  1        2 0.28391673E+00 0.26256893E+02</pdfrwt>
<pdfrwt beam="1">  1       -1 0.83500099E-01 0.76828740E+02</pdfrwt>
<totfact> 0.20508703E+01</totfact>
</mgrwt>
</event>
<event>
13    1  0.2101801E-008  0.5334349E+02  0.7546771E-02  0.1477738E+00
          2   -1    0    0  503    0  0.00000000000E+00  0.00000000000E+00  0.18947033533E+04  0.18947033533E+04  0.00000000000E+00 0. -1.
         -3   -1    0    0    0  501 -0.00000000000E+00 -0.00000000000E+00 -0.83183534295E+03  0.83183534295E+03  0.00000000000E+00 0.  1.
         24    2    1    2    0    0 -0.44169788712E+02 -0.10689419935E+02 -0.10081995011E+03  0.13636487113E+03  0.79783969595E+02 0.  0.
         25    2    1    2    0    0  0.79097422986E+02 -0.19414934225E+02  0.11055504872E+04  0.11155711429E+04  0.12499501307E+03 0.  0.
         24    2    1    2    0    0 -0.25823391119E+02 -0.58790695934E+02 -0.58962179141E+02  0.11690733217E+03  0.77894751354E+02 0.  0.
        -11    1    5    5    0    0 -0.35706106656E+02 -0.25940525061E+02 -0.68332570142E+02  0.81346032695E+02  0.00000000000E+00 0.  1.
         12    1    5    5    0    0  0.98827155372E+01 -0.32850170873E+02  0.93703910009E+01  0.35561299474E+02  0.00000000000E+00 0. -1.
        -13    1    3    3    0    0  0.19241889599E+02 -0.19968546880E+02 -0.30129184496E+02  0.40948271493E+02  0.00000000000E+00 0.  1.
         14    1    3    3    0    0 -0.63411678311E+02  0.92791269445E+01 -0.70690765619E+02  0.95416599640E+02  0.00000000000E+00 0. -1.
          5    1    4    4  502    0  0.64201143220E+02  0.96885808546E+01  0.10412517112E+04  0.10432846550E+04  0.47000000000E+01 0. -1.
         -5    1    4    4    0  502  0.14896279766E+02 -0.29103515080E+02  0.64298775993E+02  0.72286487915E+02  0.47000000000E+01 0. -1.
          1    1    1    2  503    0  0.76690953444E+00  0.53177301558E+02  0.73588356210E+03  0.73780283987E+03  0.00000000000E+00 0. -1.
         -4    1    1    2    0  501 -0.98711526898E+01  0.35717748537E+02 -0.61878390968E+03  0.61989251011E+03  0.00000000000E+00 0.  1.
<mgrwt>
<rscale>  0 0.44460461E+02</rscale>
<asrwt>0</asrwt>
<pdfrwt beam="1">  1        2 0.27863285E+00 0.53343494E+02</pdfrwt>
<pdfrwt beam="2">  1       -3 0.12232873E+00 0.37056676E+02</pdfrwt>
<totfact> 0.37684449E+00</totfact>
</mgrwt>
</event>
<event>
13    1  0.2101801E-008  0.9535116E+02  0.7546771E-02  0.1326023E+00
          2   -1    0    0  503    0  0.00000000000E+00  0.00000000000E+00  0.15009646934E+04  0.15009646934E+04  0.00000000000E+00 0. -1.
          2   -1    0    0  502    0 -0.00000000000E+00 -0.00000000000E+00 -0.13042211047E+04  0.13042211047E+04  0.00000000000E+00 0. -1.
         24    2    1    2    0    0 -0.27108925767E+00  0.47149940317E+02 -0.62012314245E+02  0.11131296885E+03  0.79510122349E+02 0.  0.
         25    2    1    2    0    0  0.87037162608E+02  0.61085520222E+02  0.93115816583E+03  0.94550941139E+03  0.12500243512E+03 0.  0.
         24    2    1    2    0    0  0.12820510378E+02  0.51817206067E+02  0.76165818358E+01  0.95738716383E+02  0.79110689321E+02 0.  0.
        -11    1    5    5    0    0  0.28082001907E+02  0.25963922274E+02  0.37369282515E+02  0.53471369597E+02  0.00000000000E+00 0.  1.
         12    1    5    5    0    0 -0.15261491529E+02  0.25853283793E+02 -0.29752700679E+02  0.42267346785E+02  0.00000000000E+00 0. -1.
        -11    1    3    3    0    0 -0.19555248490E+02  0.62681881212E+02 -0.34056683002E+02  0.73968125791E+02  0.00000000000E+00 0.  1.
         12    1    3    3    0    0  0.19284159233E+02 -0.15531940896E+02 -0.27955631242E+02  0.37344843064E+02  0.00000000000E+00 0. -1.
          5    1    4    4  501    0  0.91803079771E+02  0.36878518647E+01  0.36521962771E+03  0.37662829444E+03  0.47000000000E+01 0. -1.
         -5    1    4    4    0  501 -0.47659171630E+01  0.57397668357E+02  0.56593853812E+03  0.56888111695E+03  0.47000000000E+01 0. -1.
          1    1    1    2  502    0 -0.34363637555E+02 -0.13772350142E+03 -0.11595286043E+04  0.11681845773E+04  0.00000000000E+00 0. -1.
          1    1    1    2  503    0 -0.65222946173E+02 -0.22329165187E+02  0.47950975957E+03  0.48444012411E+03  0.00000000000E+00 0. -1.
<mgrwt>
<rscale>  0 0.81076756E+02</rscale>
<asrwt>0</asrwt>
<pdfrwt beam="1">  1        2 0.22073010E+00 0.68939280E+02</pdfrwt>
<pdfrwt beam="2">  1        2 0.19179722E+00 0.95351160E+02</pdfrwt>
<totfact> 0.51733871E+01</totfact>
</mgrwt>
</event>
<event>
13    1  0.2121702E-008  0.5587589E+02  0.7546771E-02  0.1523503E+00
          2   -1    0    0  502    0  0.00000000000E+00  0.00000000000E+00  0.32619873289E+04  0.32619873289E+04  0.00000000000E+00 0. -1.
          2   -1    0    0  503    0 -0.00000000000E+00 -0.00000000000E+00 -0.81774900142E+03  0.81774900142E+03  0.00000000000E+00 0. -1.
         24    2    1    2    0    0 -0.12472103037E+02 -0.59441631256E+02 -0.23870027514E+03  0.25951039915E+03  0.81724935226E+02 0.  0.
         25    2    1    2    0    0  0.77091028028E+02  0.24378682810E+02  0.26080709152E+04  0.26123165624E+04  0.12500630584E+03 0.  0.
         24    2    1    2    0    0 -0.46678205913E+02  0.59943871070E+02  0.77250230339E+02  0.13692437277E+03  0.83717161829E+02 0.  0.
        -11    1    3    3    0    0 -0.16466697595E+02  0.11577138189E+02 -0.11557888918E+03  0.11731863399E+03  0.00000000000E+00 0.  1.
         12    1    3    3    0    0  0.39945945576E+01 -0.71018769444E+02 -0.12312138596E+03  0.14219176516E+03  0.00000000000E+00 0. -1.
        -11    1    5    5    0    0 -0.43294146823E+02  0.66982054176E+02  0.91066297119E+02  0.12105391031E+03  0.00000000000E+00 0.  1.
         12    1    5    5    0    0 -0.33840590900E+01 -0.70381831061E+01 -0.13816066780E+02  0.15870462458E+02  0.00000000000E+00 0. -1.
          5    1    4    4  501    0  0.10297779822E+03 -0.11748836082E+02  0.19109994410E+04  0.19138138404E+04  0.47000000000E+01 0. -1.
         -5    1    4    4    0  501 -0.25886770189E+02  0.36127518892E+02  0.69707147418E+03  0.69850272198E+03  0.47000000000E+01 0. -1.
          1    1    1    2  502    0  0.20599990158E+02  0.15594373548E+02  0.53253211556E+03  0.53315851131E+03  0.00000000000E+00 0. -1.
          1    1    1    2  503    0 -0.38540709235E+02 -0.40475296172E+02 -0.53491465845E+03  0.53782648475E+03  0.00000000000E+00 0. -1.
<mgrwt>
<rscale>  0 0.37995506E+02</rscale>
<asrwt>0</asrwt>
<pdfrwt beam="1">  1        2 0.47970401E+00 0.25836874E+02</pdfrwt>
<pdfrwt beam="2">  1        2 0.12025721E+00 0.55875894E+02</pdfrwt>
<totfact> 0.16115663E+01</totfact>
</mgrwt>
</event>
<event>
13    1  0.2101801E-008  0.1177900E+03  0.7546771E-02  0.1291862E+00
          2   -1    0    0  502    0  0.00000000000E+00  0.00000000000E+00  0.41372918766E+04  0.41372918766E+04  0.00000000000E+00 0. -1.
          4   -1    0    0  503    0 -0.00000000000E+00 -0.00000000000E+00 -0.40311058759E+03  0.40311058759E+03  0.00000000000E+00 0. -1.
         24    2    1    2    0    0 -0.12966795721E+02  0.91261984777E+02 -0.24223197721E+03  0.27089960375E+03  0.78824976212E+02 0.  0.
         25    2    1    2    0    0  0.19916267170E+03 -0.12576183728E+02  0.10094300883E+04  0.10365315397E+04  0.12499839806E+03 0.  0.
         24    2    1    2    0    0 -0.12237409161E+02 -0.49685183740E+01  0.20566123745E+04  0.20582738591E+04  0.81623403247E+02 0.  0.
        -13    1    3    3    0    0  0.26261084242E+02  0.55117549877E+02 -0.17329581977E+03  0.18373630561E+03  0.00000000000E+00 0.  1.
         14    1    3    3    0    0 -0.39227879963E+02  0.36144434901E+02 -0.68936157438E+02  0.87163298142E+02  0.00000000000E+00 0. -1.
        -13    1    5    5    0    0  0.30855005611E+02  0.13553696498E+02  0.64179379130E+03  0.64267799450E+03  0.00000000000E+00 0.  1.
         14    1    5    5    0    0 -0.43092414772E+02 -0.18522214872E+02  0.14148185832E+04  0.14155958646E+04  0.00000000000E+00 0. -1.
          5    1    4    4  501    0  0.70692152628E+02  0.32968452760E+01  0.66115102924E+03  0.66494437595E+03  0.47000000000E+01 0. -1.
         -5    1    4    4    0  501  0.12847051907E+03 -0.15873029004E+02  0.34827905905E+03  0.37158716379E+03  0.47000000000E+01 0. -1.
          1    1    1    2  502    0 -0.74847267939E+02 -0.13915296994E+02  0.10154869457E+04  0.10183366270E+04  0.00000000000E+00 0. -1.
          3    1    1    2  503    0 -0.99111198881E+02 -0.59801985681E+02 -0.10511614223E+03  0.15636083458E+03  0.00000000000E+00 0. -1.
<mgrwt>
<rscale>  0 0.94695973E+02</rscale>
<asrwt>0</asrwt>
<pdfrwt beam="1">  1        2 0.60842525E+00 0.76129817E+02</pdfrwt>
<pdfrwt beam="2">  1        4 0.59280971E-01 0.11778995E+03</pdfrwt>
<totfact> 0.87715553E-01</totfact>
</mgrwt>
</event>
<event>
13    1  0.2101801E-008  0.1303387E+03  0.7546771E-02  0.1244772E+00
          2   -1    0    0  502    0  0.00000000000E+00  0.00000000000E+00  0.17197377564E+04  0.17197377564E+04  0.00000000000E+00 0. -1.
          2   -1    0    0  503    0 -0.00000000000E+00 -0.00000000000E+00 -0.14587657898E+04  0.14587657898E+04  0.00000000000E+00 0. -1.
         24    2    1    2    0    0  0.11473527755E+03 -0.20215017534E+03 -0.72695159262E+03  0.76755009560E+03  0.81520880450E+02 0.  0.
         25    2    1    2    0    0 -0.11459293227E+02  0.21794362155E+03  0.13721668994E+03  0.28651105610E+03  0.12501770953E+03 0.  0.
         24    2    1    2    0    0  0.19397063839E+02 -0.24894025892E+01 -0.42665450602E+02  0.92665243109E+02  0.79900334132E+02 0.  0.
        -11    1    3    3    0    0 -0.12282562158E+02 -0.13964139485E+02 -0.41520161054E+02  0.45494860134E+02  0.00000000000E+00 0.  1.
         12    1    3    3    0    0  0.12701783970E+03 -0.18818603586E+03 -0.68543143156E+03  0.72205523547E+03  0.00000000000E+00 0. -1.
        -13    1    5    5    0    0  0.82548794694E+01  0.38704092757E+02 -0.19793673018E+02  0.44248608145E+02  0.00000000000E+00 0.  1.
         14    1    5    5    0    0  0.11142184370E+02 -0.41193495346E+02 -0.22871777584E+02  0.48416634964E+02  0.00000000000E+00 0. -1.
          5    1    4    4  501    0 -0.34810714996E+02  0.16705383449E+03  0.41753015357E+02  0.17573893646E+03  0.47000000000E+01 0.  1.
         -5    1    4    4    0  501  0.23351421769E+02  0.50889787056E+02  0.95463674581E+02  0.11077211964E+03  0.47000000000E+01 0.  1.
          1    1    1    2  502    0 -0.18607809787E+02 -0.12900421455E+03  0.14489585893E+04  0.14548090361E+04  0.00000000000E+00 0. -1.
          1    1    1    2  503    0 -0.10406523837E+03  0.11570017094E+03 -0.55558626943E+03  0.57696811539E+03  0.00000000000E+00 0. -1.
<mgrwt>
<rscale>  0 0.11899041E+03</rscale>
<asrwt>0</asrwt>
<pdfrwt beam="1">  1        2 0.25290261E+00 0.13033868E+03</pdfrwt>
<pdfrwt beam="2">  1        2 0.21452438E+00 0.10863020E+03</pdfrwt>
<totfact> 0.31748459E+01</totfact>
</mgrwt>
</event>
<event>
13    1  0.2101801E-008  0.8413157E+02  0.7546771E-02  0.1410454E+00
          2   -1    0    0  503    0  0.00000000000E+00  0.00000000000E+00  0.16845961206E+04  0.16845961206E+04  0.00000000000E+00 0. -1.
          2   -1    0    0  502    0 -0.00000000000E+00 -0.00000000000E+00 -0.51045961197E+03  0.51045961197E+03  0.00000000000E+00 0. -1.
         24    2    1    2    0    0  0.55344711776E+01 -0.29265016727E+02 -0.73059014202E+02  0.12681471051E+03  0.99283833881E+02 0.  0.
         25    2    1    2    0    0  0.47193515928E+02 -0.47810039751E+02  0.20500131953E+03  0.24932944733E+03  0.12500641764E+03 0.  0.
         24    2    1    2    0    0 -0.41041450718E+02 -0.31581430318E+02  0.63896079433E+02  0.11616204631E+03  0.82031241713E+02 0.  0.
        -11    1    3    3    0    0 -0.43067728440E+02  0.61362762773E+01 -0.32014951279E+02  0.54013333770E+02  0.00000000000E+00 0.  1.
         12    1    3    3    0    0  0.48602199617E+02 -0.35401293004E+02 -0.41044062923E+02  0.72801376740E+02  0.00000000000E+00 0. -1.
        -11    1    5    5    0    0 -0.18037182306E+01  0.18028961991E+02 -0.85111596533E+01  0.20018409242E+02  0.00000000000E+00 0.  1.
         12    1    5    5    0    0 -0.39237732487E+02 -0.49610392309E+02  0.72407239087E+02  0.96143637064E+02  0.00000000000E+00 0. -1.
          5    1    4    4  501    0  0.43618345724E+02 -0.12059034032E+02  0.20804920743E+03  0.21296606090E+03  0.47000000000E+01 0. -1.
         -5    1    4    4    0  501  0.35751702035E+01 -0.35751005719E+02 -0.30478879001E+01  0.36363386429E+02  0.47000000000E+01 0. -1.
          1    1    1    2  502    0 -0.33702347589E+02  0.76775696380E+02 -0.35708878223E+03  0.36680070091E+03  0.00000000000E+00 0. -1.
          1    1    1    2  503    0  0.22015811201E+02  0.31880790415E+02  0.13353869061E+04  0.13359488275E+04  0.00000000000E+00 0. -1.
<mgrwt>
<rscale>  0 0.57092692E+02</rscale>
<asrwt>0</asrwt>
<pdfrwt beam="1">  1        2 0.24773472E+00 0.38743783E+02</pdfrwt>
<pdfrwt beam="2">  1        2 0.75067591E-01 0.84131574E+02</pdfrwt>
<totfact> 0.14344520E+02</totfact>
</mgrwt>
</event>
<event>
13    1  0.2101801E-008  0.2494945E+03  0.7546771E-02  0.1229236E+00
          2   -1    0    0  502    0  0.00000000000E+00  0.00000000000E+00  0.14664252505E+04  0.14664252505E+04  0.00000000000E+00 0. -1.
          2   -1    0    0  503    0 -0.00000000000E+00 -0.00000000000E+00 -0.10509124161E+04  0.10509124161E+04  0.00000000000E+00 0. -1.
         24    2    1    2    0    0 -0.15616666823E+02  0.50929510801E+02 -0.33746250825E+02  0.10223482877E+03  0.80470214464E+02 0.  0.
         25    2    1    2    0    0 -0.62535285958E+00  0.18445593660E+03 -0.75735854161E+01  0.22295514700E+03  0.12500901873E+03 0.  0.
         24    2    1    2    0    0  0.32689199313E+02  0.83628720747E+02  0.85858789960E+02  0.14710806036E+03  0.78782630856E+02 0.  0.
        -11    1    3    3    0    0 -0.28025840564E+02  0.67370530251E+02 -0.15235224577E+02  0.74540915970E+02  0.00000000000E+00 0.  1.
         12    1    3    3    0    0  0.12409173741E+02 -0.16441019450E+02 -0.18511026247E+02  0.27693912801E+02  0.00000000000E+00 0. -1.
        -11    1    5    5    0    0  0.45090362994E+02  0.93302622016E+02  0.76511827651E+02  0.12881218840E+03  0.00000000000E+00 0.  1.
         12    1    5    5    0    0 -0.12401163681E+02 -0.96739012695E+01  0.93469623096E+01  0.18295871962E+02  0.00000000000E+00 0. -1.
          5    1    4    4  501    0 -0.72641829877E+00  0.10607267794E+03  0.57699864414E+02  0.12084413532E+03  0.47000000000E+01 0.  1.
         -5    1    4    4    0  501  0.10106543919E+00  0.78383258659E+02 -0.65273449830E+02  0.10211101167E+03  0.47000000000E+01 0.  1.
          1    1    1    2  502    0 -0.34745340972E+02 -0.25508122422E+03  0.11929331541E+04  0.12203946820E+04  0.00000000000E+00 0. -1.
          1    1    1    2  503    0  0.18298161342E+02 -0.63932943926E+02 -0.82195927334E+03  0.82464494848E+03  0.00000000000E+00 0. -1.
<mgrwt>
<rscale>  0 0.12880751E+03</rscale>
<asrwt>0</asrwt>
<pdfrwt beam="1">  1        2 0.21565077E+00 0.24949451E+03</pdfrwt>
<pdfrwt beam="2">  1        2 0.15454594E+00 0.66499955E+02</pdfrwt>
<totfact> 0.68080451E+01</totfact>
</mgrwt>
</event>
<event>
13    1  0.2101801E-008  0.6269052E+02  0.7546771E-02  0.1435721E+00
          2   -1    0    0  503    0  0.00000000000E+00  0.00000000000E+00  0.12990562856E+04  0.12990562856E+04  0.00000000000E+00 0. -1.
          2   -1    0    0  502    0 -0.00000000000E+00 -0.00000000000E+00 -0.19020736998E+04  0.19020736998E+04  0.00000000000E+00 0. -1.
         24    2    1    2    0    0 -0.59764205377E+02 -0.88523465244E+01 -0.49363482425E+03  0.50377788669E+03  0.80415764172E+02 0.  0.
         25    2    1    2    0    0 -0.10374694318E+02 -0.10457099000E+02  0.22374358169E+03  0.25671603949E+03  0.12499979753E+03 0.  0.
         24    2    1    2    0    0 -0.17928040796E+02  0.37013178292E+02 -0.22029070297E+02  0.91523507946E+02  0.78739332957E+02 0.  0.
        -11    1    3    3    0    0 -0.70864506735E+02 -0.26656481852E+02 -0.43412625041E+03  0.44067896210E+03  0.00000000000E+00 0.  1.
         12    1    3    3    0    0  0.11100301358E+02  0.17804135328E+02 -0.59508573837E+02  0.63098924596E+02  0.00000000000E+00 0. -1.
        -11    1    5    5    0    0  0.18341618162E+02  0.46818522118E+02 -0.58710674909E+01  0.50624681763E+02  0.00000000000E+00 0.  1.
         12    1    5    5    0    0 -0.36269658958E+02 -0.98053438257E+01 -0.16158002807E+02  0.40898826183E+02  0.00000000000E+00 0. -1.
          5    1    4    4  501    0 -0.53602652096E+02  0.33884523311E+02  0.10647947033E+03  0.12402166276E+03  0.47000000000E+01 0. -1.
         -5    1    4    4    0  501  0.43227957778E+02 -0.44341622311E+02  0.11726411137E+03  0.13269437674E+03  0.47000000000E+01 0. -1.
          1    1    1    2  502    0  0.50111492784E+02 -0.37588027885E+02 -0.13289162715E+04  0.13303918514E+04  0.00000000000E+00 0. -1.
          1    1    1    2  503    0  0.37955447707E+02  0.19884295118E+02  0.10178191701E+04  0.10187206998E+04  0.00000000000E+00 0. -1.
<mgrwt>
<rscale>  0 0.51828566E+02</rscale>
<asrwt>0</asrwt>
<pdfrwt beam="1">  1        2 0.19103769E+00 0.42848585E+02</pdfrwt>
<pdfrwt beam="2">  1        2 0.27971672E+00 0.62690524E+02</pdfrwt>
<totfact> 0.35736201E+01</totfact>
</mgrwt>
</event>
<event>
13    1  0.2101801E-008  0.1621148E+03  0.7546771E-02  0.1275891E+00
          4   -1    0    0  503    0 -0.00000000000E+00  0.00000000000E+00  0.20315546593E+04  0.20315546593E+04  0.00000000000E+00 0. -1.
          2   -1    0    0  502    0  0.00000000000E+00 -0.00000000000E+00 -0.79579697550E+03  0.79579697550E+03  0.00000000000E+00 0. -1.
         24    2    1    2    0    0  0.11470264819E+03  0.73539074785E+02  0.47208722515E+03  0.49823256178E+03  0.82490268820E+02 0.  0.
         25    2    1    2    0    0 -0.25166543360E+03 -0.24853547197E+03  0.24602597260E+03  0.44861977734E+03  0.12500221651E+03 0.  0.
         24    2    1    2    0    0 -0.82114796234E+02  0.59464731391E+02 -0.95401284898E+02  0.16205683948E+03  0.82958543993E+02 0.  0.
        -11    1    5    5    0    0 -0.86805723968E+02  0.71577179561E+02 -0.67308834105E+02  0.13110684763E+03  0.00000000000E+00 0.  1.
         12    1    5    5    0    0  0.46909277343E+01 -0.12112448170E+02 -0.28092450793E+02  0.30949991846E+02  0.00000000000E+00 0. -1.
        -11    1    3    3    0    0  0.21051870627E+02  0.40345158303E+02  0.66009580667E+02  0.80175917801E+02  0.00000000000E+00 0.  1.
         12    1    3    3    0    0  0.93650777560E+02  0.33193916482E+02  0.40607764448E+03  0.41805664398E+03  0.00000000000E+00 0. -1.
          5    1    4    4  501    0 -0.90841838143E+02 -0.10820936724E+03  0.29231224825E+02  0.14435394425E+03  0.47000000000E+01 0.  1.
         -5    1    4    4    0  501 -0.16082359546E+03 -0.14032610473E+03  0.21679474777E+03  0.30426583309E+03  0.47000000000E+01 0.  1.
          1    1    1    2  502    0  0.15478280424E+03  0.11330481574E+03 -0.53512706054E+03  0.56846870510E+03  0.00000000000E+00 0. -1.
          3    1    1    2  503    0  0.64294777409E+02  0.22268500511E+01  0.11481728315E+04  0.11499737511E+04  0.00000000000E+00 0. -1.
<mgrwt>
<rscale>  0 0.10212436E+03</rscale>
<asrwt>0</asrwt>
<pdfrwt beam="2">  1        2 0.11702897E+00 0.16211481E+03</pdfrwt>
<pdfrwt beam="1">  1        4 0.29875804E+00 0.64333329E+02</pdfrwt>
<totfact> 0.82764519E-01</totfact>
</mgrwt>
</event>
<event>
13    1  0.2101801E-008  0.2827717E+02  0.7546771E-02  0.1629385E+00
          2   -1    0    0  502    0  0.00000000000E+00  0.00000000000E+00  0.29076387693E+03  0.29076387693E+03  0.00000000000E+00 0. -1.
          2   -1    0    0  503    0 -0.00000000000E+00 -0.00000000000E+00 -0.16757581487E+04  0.16757581487E+04  0.00000000000E+00 0. -1.
         24    2    1    2    0    0  0.16285282543E+02  0.96341391174E+02 -0.85992596130E+03  0.87051323944E+03  0.93668388663E+02 0.  0.
         25    2    1    2    0    0  0.11341212182E+02  0.40866185460E+01  0.10389560104E+03  0.16299066977E+03  0.12500535577E+03 0.  0.
         24    2    1    2    0    0  0.23964935358E+02 -0.10878615282E+03 -0.68680616551E+03  0.70044490473E+03  0.80694550061E+02 0.  0.
        -13    1    3    3    0    0 -0.36972772041E+02  0.24784917276E+02 -0.35351926965E+03  0.35631047137E+03  0.00000000000E+00 0.  1.
         14    1    3    3    0    0  0.53258054585E+02  0.71556473898E+02 -0.50640669166E+03  0.51420276807E+03  0.00000000000E+00 0. -1.
        -13    1    5    5    0    0  0.87881504098E+01 -0.91024442603E+02 -0.31768121446E+03  0.33058135876E+03  0.00000000000E+00 0.  1.
         14    1    5    5    0    0  0.15176784948E+02 -0.17761710220E+02 -0.36912495105E+03  0.36986354597E+03  0.00000000000E+00 0. -1.
          5    1    4    4  501    0 -0.53401932893E+02  0.17448181923E+02  0.65409056630E+02  0.86351839461E+02  0.47000000000E+01 0. -1.
         -5    1    4    4    0  501  0.64743145075E+02 -0.13361563377E+02  0.38486544406E+02  0.76638830305E+02  0.47000000000E+01 0. -1.
          1    1    1    2  502    0 -0.28021559789E+02 -0.36480566547E+01  0.14177875522E+03  0.14456739453E+03  0.00000000000E+00 0. -1.
          1    1    1    2  503    0 -0.23569870295E+02  0.12006199757E+02 -0.83936501202E+02  0.88005817151E+02  0.00000000000E+00 0. -1.
<mgrwt>
<rscale>  0 0.27349162E+02</rscale>
<asrwt>0</asrwt>
<pdfrwt beam="1">  1        2 0.42759393E-01 0.28277170E+02</pdfrwt>
<pdfrwt beam="2">  1        2 0.24643502E+00 0.26451609E+02</pdfrwt>
<totfact> 0.26692822E+02</totfact>
</mgrwt>
</event>
<event>
13    1  0.2101801E-008  0.6871685E+02  0.7546771E-02  0.1422411E+00
          2   -1    0    0  502    0  0.00000000000E+00  0.00000000000E+00  0.28813645719E+04  0.28813645719E+04  0.00000000000E+00 0. -1.
          2   -1    0    0  503    0 -0.00000000000E+00 -0.00000000000E+00 -0.13108142142E+04  0.13108142142E+04  0.00000000000E+00 0. -1.
         24    2    1    2    0    0 -0.27456708226E+03 -0.62050363576E+02 -0.57420469149E+03  0.64475219118E+03  0.82201155824E+02 0.  0.
         25    2    1    2    0    0  0.21189388311E+03 -0.13328967123E+01  0.10325743160E+04  0.10614778338E+04  0.12499871661E+03 0.  0.
         24    2    1    2    0    0  0.97911073831E+02  0.34119852778E+02  0.93561482120E+02  0.16076742624E+03  0.79634613514E+02 0.  0.
        -13    1    5    5    0    0  0.10262069670E+03  0.69299661944E+01  0.78017094167E+02  0.12909569630E+03  0.00000000000E+00 0.  1.
         14    1    5    5    0    0 -0.47096228661E+01  0.27189886584E+02  0.15544387953E+02  0.31671729931E+02  0.00000000000E+00 0. -1.
        -13    1    3    3    0    0 -0.18120408201E+03 -0.64243173668E+00 -0.34099368142E+03  0.38615025938E+03  0.00000000000E+00 0.  1.
         14    1    3    3    0    0 -0.93363000250E+02 -0.61407931839E+02 -0.23321101007E+03  0.25860193179E+03  0.00000000000E+00 0. -1.
          5    1    4    4  501    0  0.10449145024E+03 -0.49036227347E+02  0.34262609877E+03  0.36157675302E+03  0.47000000000E+01 0. -1.
         -5    1    4    4    0  501  0.10740243287E+03  0.47703330635E+02  0.68994821724E+03  0.69990108073E+03  0.47000000000E+01 0. -1.
          1    1    1    2  502    0 -0.14489546245E+02  0.67207809769E+02  0.16704766863E+04  0.16718909044E+04  0.00000000000E+00 0. -1.
          1    1    1    2  503    0 -0.20748328430E+02 -0.37944402259E+02 -0.65185743526E+03  0.65329043059E+03  0.00000000000E+00 0. -1.
<mgrwt>
<rscale>  0 0.54513962E+02</rscale>
<asrwt>0</asrwt>
<pdfrwt beam="1">  1        2 0.42373008E+00 0.68716852E+02</pdfrwt>
<pdfrwt beam="2">  1        2 0.19276680E+00 0.43246628E+02</pdfrwt>
<totfact> 0.11647385E+01</totfact>
</mgrwt>
</event>
<event>
13    1  0.2101801E-008  0.1259356E+03  0.7546771E-02  0.1238457E+00
          2   -1    0    0  502    0  0.00000000000E+00  0.00000000000E+00  0.14212288589E+04  0.14212288589E+04  0.00000000000E+00 0. -1.
          2   -1    0    0  503    0 -0.00000000000E+00 -0.00000000000E+00 -0.11561210730E+04  0.11561210730E+04  0.00000000000E+00 0. -1.
         24    2    1    2    0    0 -0.75794459490E+01 -0.35308780545E+02 -0.47452350140E+02  0.95603878014E+02  0.74727625234E+02 0.  0.
         25    2    1    2    0    0 -0.10197548460E+03  0.16502031228E+03 -0.64767235362E+02  0.23968860273E+03  0.12500051431E+03 0.  0.
         24    2    1    2    0    0 -0.12106707228E+03  0.32796998236E+02  0.49457791146E+03  0.51757390539E+03  0.86847901209E+02 0.  0.
        -11    1    3    3    0    0  0.21709701156E+02 -0.36512799037E+02 -0.33012613379E+01  0.42607440010E+02  0.00000000000E+00 0.  1.
         12    1    3    3    0    0 -0.29289147105E+02  0.12040184922E+01 -0.44151088802E+02  0.52996438004E+02  0.00000000000E+00 0. -1.
        -13    1    5    5    0    0 -0.12957591208E+03  0.12682917588E+02  0.43745713084E+03  0.45642032680E+03  0.00000000000E+00 0.  1.
         14    1    5    5    0    0  0.85088398031E+01  0.20114080648E+02  0.57120780624E+02  0.61153578589E+02  0.00000000000E+00 0. -1.
          5    1    4    4  501    0 -0.49246807233E+02 -0.30067325133E+01  0.58240367542E+01  0.49902884357E+02  0.47000000000E+01 0.  1.
         -5    1    4    4    0  501 -0.52728677372E+02  0.16802704479E+03 -0.70591272116E+02  0.18978571837E+03  0.47000000000E+01 0.  1.
          1    1    1    2  502    0  0.89515116881E+02 -0.88455602067E+02  0.79171501199E+03  0.80165454524E+03  0.00000000000E+00 0. -1.
          1    1    1    2  503    0  0.14110688595E+03 -0.74052927903E+02 -0.90896555210E+03  0.92282900057E+03  0.00000000000E+00 0. -1.
<mgrwt>
<rscale>  0 0.12285711E+03</rscale>
<asrwt>0</asrwt>
<pdfrwt beam="1">  1        2 0.20900424E+00 0.12593563E+03</pdfrwt>
<pdfrwt beam="2">  1        2 0.17001780E+00 0.11985384E+03</pdfrwt>
<totfact> 0.63914635E+01</totfact>
</mgrwt>
</event>
<event>
13    1  0.2101801E-008  0.1229999E+03  0.7546771E-02  0.1329646E+00
          2   -1    0    0  503    0  0.00000000000E+00  0.00000000000E+00  0.29561975130E+04  0.29561975130E+04  0.00000000000E+00 0. -1.
          2   -1    0    0  502    0 -0.00000000000E+00 -0.00000000000E+00 -0.19519938100E+04  0.19519938100E+04  0.00000000000E+00 0. -1.
         24    2    1    2    0    0  0.43215805139E+03 -0.18112017213E+03 -0.75025122337E+03  0.88828489908E+03  0.81290009392E+02 0.  0.
         25    2    1    2    0    0 -0.94336965699E+02  0.29094438491E+03  0.36304503482E+03  0.49089353237E+03  0.12500665827E+03 0.  0.
         24    2    1    2    0    0 -0.22004812133E+03 -0.47919129833E+02 -0.35180641669E+03  0.42528687240E+03  0.79898374832E+02 0.  0.
        -13    1    3    3    0    0  0.24211254637E+03 -0.12594160390E+03 -0.37172177739E+03  0.46114732189E+03  0.00000000000E+00 0.  1.
         14    1    3    3    0    0  0.19004550503E+03 -0.55178568236E+02 -0.37852944598E+03  0.42713757719E+03  0.00000000000E+00 0. -1.
        -13    1    5    5    0    0 -0.11136746478E+03  0.13582558644E+02 -0.13998587737E+03  0.17939688954E+03  0.00000000000E+00 0.  1.
         14    1    5    5    0    0 -0.10868065655E+03 -0.61501688477E+02 -0.21182053932E+03  0.24588998286E+03  0.00000000000E+00 0. -1.
          5    1    4    4  501    0 -0.13964476223E+02  0.16682239871E+03  0.11878088632E+03  0.20531855314E+03  0.47000000000E+01 0. -1.
         -5    1    4    4    0  501 -0.80372489476E+02  0.12412198620E+03  0.24426414851E+03  0.28557497924E+03  0.47000000000E+01 0. -1.
          1    1    1    2  502    0 -0.12256561326E+03 -0.10366666373E+02 -0.67441523468E+03  0.68554044819E+03  0.00000000000E+00 0. -1.
          1    1    1    2  503    0  0.47926489019E+01 -0.51538416567E+02  0.24176315429E+04  0.24181855709E+04  0.00000000000E+00 0. -1.
<mgrwt>
<rscale>  0 0.79790803E+02</rscale>
<asrwt>0</asrwt>
<pdfrwt beam="1">  1        2 0.43473493E+00 0.51760775E+02</pdfrwt>
<pdfrwt beam="2">  1        2 0.28705791E+00 0.12299994E+03</pdfrwt>
<totfact> 0.49961693E+00</totfact>
</mgrwt>
</event>
<event>
13    1  0.2101801E-008  0.6384558E+02  0.7546771E-02  0.1386272E+00
         -1   -1    0    0    0  501 -0.00000000000E+00  0.00000000000E+00  0.32100332062E+03  0.32100332062E+03  0.00000000000E+00 0.  1.
          2   -1    0    0  503    0  0.00000000000E+00 -0.00000000000E+00 -0.16508468098E+04  0.16508468098E+04  0.00000000000E+00 0. -1.
         24    2    1    2    0    0  0.23140533297E+03 -0.56250492704E+02  0.63994790216E+02  0.25966107712E+03  0.81338771450E+02 0.  0.
         25    2    1    2    0    0 -0.23186463866E+03  0.23409448689E+03 -0.97232923201E+03  0.10342196044E+04  0.12499846064E+03 0.  0.
         24    2    1    2    0    0 -0.41845407441E+02 -0.95747293377E+02 -0.26569134031E+03  0.29679572229E+03  0.81100124173E+02 0.  0.
        -11    1    5    5    0    0  0.21073936176E+02 -0.48884341927E+01 -0.38967266360E+02  0.44569669310E+02  0.00000000000E+00 0.  1.
         12    1    5    5    0    0 -0.62919343617E+02 -0.90858859184E+02 -0.22672407395E+03  0.25222605298E+03  0.00000000000E+00 0. -1.
        -13    1    3    3    0    0  0.21440154625E+03 -0.70744886644E+02  0.70268113954E+02  0.23645394871E+03  0.00000000000E+00 0.  1.
         14    1    3    3    0    0  0.17003786718E+02  0.14494393940E+02 -0.62733237386E+01  0.23207128413E+02  0.00000000000E+00 0. -1.
          5    1    4    4  502    0 -0.62987743328E+02  0.11499861570E+02 -0.28728563068E+03  0.29437191820E+03  0.47000000000E+01 0.  1.
         -5    1    4    4    0  502 -0.16887689533E+03  0.22259462532E+03 -0.68504360133E+03  0.73984768617E+03  0.47000000000E+01 0.  1.
          1    1    1    2  503    0 -0.17326201595E+02 -0.59381014794E+02 -0.25546436522E+03  0.26284661702E+03  0.00000000000E+00 0. -1.
         -2    1    1    2    0  501  0.59630914725E+02 -0.22715686020E+02  0.99646658175E+02  0.11832710961E+03  0.00000000000E+00 0.  1.
<mgrwt>
<rscale>  0 0.62843482E+02</rscale>
<asrwt>0</asrwt>
<pdfrwt beam="2">  1        2 0.24277160E+00 0.61857111E+02</pdfrwt>
<pdfrwt beam="1">  1       -1 0.47206369E-01 0.63845582E+02</pdfrwt>
<totfact> 0.74509541E+01</totfact>
</mgrwt>
</event>
<event>
13    1  0.2101801E-008  0.1994542E+03  0.7546771E-02  0.1174962E+00
          2   -1    0    0  502    0  0.00000000000E+00  0.00000000000E+00  0.29988985652E+04  0.29988985652E+04  0.00000000000E+00 0. -1.
          2   -1    0    0  503    0 -0.00000000000E+00 -0.00000000000E+00 -0.34763120249E+04  0.34763120249E+04  0.00000000000E+00 0. -1.
         24    2    1    2    0    0 -0.16909852914E+03  0.90656966921E+01  0.77839550534E+01  0.18750606814E+03  0.80133864378E+02 0.  0.
         25    2    1    2    0    0  0.60399589404E+01  0.37509183432E+02  0.77833062962E+03  0.78921800721E+03  0.12499229562E+03 0.  0.
         24    2    1    2    0    0 -0.56134635616E+02  0.22085729300E+03  0.44602060691E+02  0.24542084593E+03  0.79454431068E+02 0.  0.
        -11    1    3    3    0    0 -0.59949530758E+02 -0.82229888981E+01  0.39830792739E+02  0.72443466474E+02  0.00000000000E+00 0.  1.
         12    1    3    3    0    0 -0.10914899838E+03  0.17288685590E+02 -0.32046837685E+02  0.11506260167E+03  0.00000000000E+00 0. -1.
        -11    1    5    5    0    0  0.11045714346E+02  0.37023356318E+02 -0.14027454192E+02  0.41103603121E+02  0.00000000000E+00 0.  1.
         12    1    5    5    0    0 -0.67180349962E+02  0.18383393668E+03  0.58629514883E+02  0.20431724281E+03  0.00000000000E+00 0. -1.
          5    1    4    4  501    0 -0.20820629146E+02 -0.41384437201E+02  0.31598856832E+03  0.31940105753E+03  0.47000000000E+01 0. -1.
         -5    1    4    4    0  501  0.26860588086E+02  0.78893620633E+02  0.46234206129E+03  0.46981694968E+03  0.47000000000E+01 0. -1.
          1    1    1    2  502    0  0.74777187191E+02 -0.12968895228E+03  0.19665851000E+04  0.19722747800E+04  0.00000000000E+00 0. -1.
          1    1    1    2  503    0  0.14441601862E+03 -0.13774322084E+03 -0.32747152051E+04  0.32807908888E+04  0.00000000000E+00 0. -1.
<mgrwt>
<rscale>  0 0.17279700E+03</rscale>
<asrwt>0</asrwt>
<pdfrwt beam="1">  1        2 0.44101450E+00 0.14970255E+03</pdfrwt>
<pdfrwt beam="2">  1        2 0.51122236E+00 0.19945422E+03</pdfrwt>
<totfact> 0.59252227E-01</totfact>
</mgrwt>
</event>
<event>
13    1  0.2101801E-008  0.1499626E+03  0.7546771E-02  0.1200764E+00
          2   -1    0    0  503    0  0.00000000000E+00  0.00000000000E+00  0.28995077162E+04  0.28995077162E+04  0.00000000000E+00 0. -1.
          2   -1    0    0  502    0 -0.00000000000E+00 -0.00000000000E+00 -0.19186186450E+04  0.19186186450E+04  0.00000000000E+00 0. -1.
         24    2    1    2    0    0 -0.14699985508E+02 -0.18476395249E+03 -0.86030462054E+03  0.88375866838E+03  0.80941559770E+02 0.  0.
         25    2    1    2    0    0 -0.98595949802E+02  0.20888167135E+03  0.52085444384E+03  0.58332246196E+03  0.12499211584E+03 0.  0.
         24    2    1    2    0    0 -0.12917093240E+03  0.13866947908E+02  0.21020551429E+03  0.26039103291E+03  0.82095735327E+02 0.  0.
        -11    1    3    3    0    0  0.30139390411E+02 -0.11198498968E+03 -0.53349748465E+03  0.54595657968E+03  0.00000000000E+00 0.  1.
         12    1    3    3    0    0 -0.44839375919E+02 -0.72778962814E+02 -0.32680713589E+03  0.33780208870E+03  0.00000000000E+00 0. -1.
        -13    1    5    5    0    0 -0.25280772964E+02 -0.17524021357E+02  0.94528705098E+01  0.32180204584E+02  0.00000000000E+00 0.  1.
         14    1    5    5    0    0 -0.10389015944E+03  0.31390969265E+02  0.20075264378E+03  0.22821082833E+03  0.00000000000E+00 0. -1.
          5    1    4    4  501    0 -0.78740579816E+02  0.11185568875E+03  0.42064677780E+03  0.44235458140E+03  0.47000000000E+01 0.  1.
         -5    1    4    4    0  501 -0.19855369986E+02  0.97025982602E+02  0.10020766604E+03  0.14096788056E+03  0.47000000000E+01 0.  1.
          1    1    1    2  502    0  0.10843189382E+03 -0.10434832831E+03 -0.98185775578E+03  0.99332306014E+03  0.00000000000E+00 0. -1.
          1    1    1    2  503    0  0.13403497389E+03  0.66363661545E+02  0.20919914894E+04  0.20973311378E+04  0.00000000000E+00 0. -1.
<mgrwt>
<rscale>  0 0.14976338E+03</rscale>
<asrwt>0</asrwt>
<pdfrwt beam="1">  1        2 0.42639819E+00 0.14956440E+03</pdfrwt>
<pdfrwt beam="2">  1        2 0.28214980E+00 0.14996263E+03</pdfrwt>
<totfact> 0.46301556E+00</totfact>
</mgrwt>
</event>
<event>
13    1  0.2391402E-008  0.1514268E+03  0.7546771E-02  0.1324964E+00
          2   -1    0    0  502    0  0.00000000000E+00  0.00000000000E+00  0.14695240858E+04  0.14695240858E+04  0.00000000000E+00 0. -1.
          2   -1    0    0  503    0 -0.00000000000E+00 -0.00000000000E+00 -0.18997604314E+04  0.18997604314E+04  0.00000000000E+00 0. -1.
         24    2    1    2    0    0  0.40173121128E+02 -0.40925863946E+01 -0.18188241432E+02  0.75777712785E+02  0.61488378610E+02 0.  0.
         25    2    1    2    0    0 -0.13938513005E+03 -0.24715343627E+03  0.67684329763E+02  0.31736218048E+03  0.12499819824E+03 0.  0.
         24    2    1    2    0    0  0.11010256795E+02  0.52815982634E+02  0.22882472221E+03  0.24844103404E+03  0.80320857340E+02 0.  0.
        -11    1    3    3    0    0 -0.16512541821E+02  0.92089668194E+00 -0.59004319697E+01  0.17559247863E+02  0.00000000000E+00 0.  1.
         12    1    3    3    0    0  0.56685662949E+02 -0.50134830765E+01 -0.12287809462E+02  0.58218464922E+02  0.00000000000E+00 0. -1.
        -13    1    5    5    0    0 -0.17759738037E+02  0.53839179953E+02  0.87834030270E+02  0.10454129551E+03  0.00000000000E+00 0.  1.
         14    1    5    5    0    0  0.28769994833E+02 -0.10231973190E+01  0.14099069194E+03  0.14389973853E+03  0.00000000000E+00 0. -1.
          5    1    4    4  501    0 -0.12949239096E+03 -0.14955773852E+03  0.88823765155E+02  0.21690446681E+03  0.47000000000E+01 0. -1.
         -5    1    4    4    0  501 -0.98927390918E+01 -0.97595697752E+02 -0.21139435392E+02  0.10045771367E+03  0.47000000000E+01 0. -1.
          1    1    1    2  502    0  0.96737219163E+02  0.15545007838E+03  0.10009889238E+04  0.10175960112E+04  0.00000000000E+00 0. -1.
          1    1    1    2  503    0 -0.85354670331E+01  0.42979961650E+02 -0.17095460799E+04  0.17101075787E+04  0.00000000000E+00 0. -1.
<mgrwt>
<rscale>  0 0.81458056E+02</rscale>
<asrwt>0</asrwt>
<pdfrwt beam="1">  1        2 0.21610648E+00 0.15142676E+03</pdfrwt>
<pdfrwt beam="2">  1        2 0.27937653E+00 0.43819303E+02</pdfrwt>
<totfact> 0.27930253E+01</totfact>
</mgrwt>
</event>
<event>
13    1  0.2101801E-008  0.2791212E+03  0.7546771E-02  0.1236915E+00
          2   -1    0    0  503    0  0.00000000000E+00  0.00000000000E+00  0.11732924287E+04  0.11732924287E+04  0.00000000000E+00 0. -1.
          2   -1    0    0  502    0 -0.00000000000E+00 -0.00000000000E+00 -0.13302479308E+04  0.13302479308E+04  0.00000000000E+00 0. -1.
         24    2    1    2    0    0 -0.21540562613E+03 -0.13125931051E+03 -0.50458028367E+03  0.56987147510E+03  0.80769085068E+02 0.  0.
         25    2    1    2    0    0  0.41641847636E+02  0.12091273425E+02  0.67043020530E+03  0.68336074937E+03  0.12500004495E+03 0.  0.
         24    2    1    2    0    0 -0.77192998949E+02  0.27409715866E+03 -0.10234810187E+03  0.31517741239E+03  0.88168338148E+02 0.  0.
        -13    1    3    3    0    0 -0.20082233096E+03 -0.13414445898E+03 -0.42420883295E+03  0.48813674154E+03  0.00000000000E+00 0.  1.
         14    1    3    3    0    0 -0.14583295166E+02  0.28851484695E+01 -0.80371450722E+02  0.81734733564E+02  0.00000000000E+00 0. -1.
        -13    1    5    5    0    0 -0.28712460211E+02  0.12490450288E+02 -0.42067578215E+01  0.31592934829E+02  0.00000000000E+00 0.  1.
         14    1    5    5    0    0 -0.48480538738E+02  0.26160670837E+03 -0.98141344047E+02  0.28358447756E+03  0.00000000000E+00 0. -1.
          5    1    4    4  501    0  0.35444655789E+02 -0.20641366441E+02  0.62731536326E+03  0.62867244620E+03  0.47000000000E+01 0. -1.
         -5    1    4    4    0  501  0.61971918467E+01  0.32732639865E+02  0.43114842036E+02  0.54688303166E+02  0.47000000000E+01 0. -1.
          1    1    1    2  502    0  0.27974823618E+03 -0.20171219022E+03 -0.52363908954E+03  0.62701258315E+03  0.00000000000E+00 0. -1.
          1    1    1    2  503    0 -0.28791458735E+02  0.46783068654E+02  0.30318176766E+03  0.30811813943E+03  0.00000000000E+00 0. -1.
<mgrwt>
<rscale>  0 0.12382603E+03</rscale>
<asrwt>0</asrwt>
<pdfrwt beam="1">  1        2 0.17254300E+00 0.54932719E+02</pdfrwt>
<pdfrwt beam="2">  1        2 0.19562470E+00 0.27912120E+03</pdfrwt>
<totfact> 0.69317690E+01</totfact>
</mgrwt>
</event>
<event>
13    1  0.2101801E-008  0.1187708E+03  0.7546771E-02  0.1284064E+00
          2   -1    0    0  503    0  0.00000000000E+00  0.00000000000E+00  0.23467150026E+04  0.23467150026E+04  0.00000000000E+00 0. -1.
          2   -1    0    0  502    0 -0.00000000000E+00 -0.00000000000E+00 -0.10160413989E+04  0.10160413989E+04  0.00000000000E+00 0. -1.
         24    2    1    2    0    0 -0.69712483304E+02 -0.53875218440E+02 -0.22183054890E+03  0.24556269120E+03  0.57705055185E+02 0.  0.
         25    2    1    2    0    0 -0.11492664943E+03 -0.93163608706E+02  0.28385138446E+01  0.19370313770E+03  0.12500102263E+03 0.  0.
         24    2    1    2    0    0  0.19769664548E+02  0.91459820883E+02  0.22009603467E+03  0.25233051558E+03  0.80453005784E+02 0.  0.
        -13    1    5    5    0    0 -0.26595891654E+02  0.42171455547E+02  0.56852627096E+02  0.75617420767E+02  0.00000000000E+00 0.  1.
         14    1    5    5    0    0  0.46365556201E+02  0.49288365336E+02  0.16324340758E+03  0.17671309481E+03  0.00000000000E+00 0. -1.
        -13    1    3    3    0    0 -0.57026271539E+02 -0.19344762117E+02 -0.87026134370E+02  0.10582893522E+03  0.00000000000E+00 0.  1.
         14    1    3    3    0    0 -0.12686211764E+02 -0.34530456324E+02 -0.13480441453E+03  0.13973375597E+03  0.00000000000E+00 0. -1.
          5    1    4    4  501    0 -0.12720336699E+03 -0.70569686499E+02  0.37493421874E+02  0.15029512271E+03  0.47000000000E+01 0.  1.
         -5    1    4    4    0  501  0.12276717563E+02 -0.22593922207E+02 -0.34654908030E+02  0.43408014990E+02  0.47000000000E+01 0.  1.
          1    1    1    2  502    0  0.58037592711E+02  0.10871753768E+03 -0.66333540189E+03  0.67468638683E+03  0.00000000000E+00 0. -1.
          1    1    1    2  503    0  0.10683187547E+03 -0.53138531418E+02  0.19929050059E+04  0.19964736702E+04  0.00000000000E+00 0. -1.
<mgrwt>
<rscale>  0 0.98229397E+02</rscale>
<asrwt>0</asrwt>
<pdfrwt beam="1">  1        2 0.34510515E+00 0.11877077E+03</pdfrwt>
<pdfrwt beam="2">  1        2 0.14941785E+00 0.81240651E+02</pdfrwt>
<totfact> 0.27568713E+01</totfact>
</mgrwt>
</event>
<event>
13    1  0.2101801E-008  0.8712266E+02  0.7546771E-02  0.1343079E+00
          2   -1    0    0  502    0  0.00000000000E+00  0.00000000000E+00  0.12790346216E+04  0.12790346216E+04  0.00000000000E+00 0. -1.
          2   -1    0    0  503    0 -0.00000000000E+00 -0.00000000000E+00 -0.16873814101E+04  0.16873814101E+04  0.00000000000E+00 0. -1.
         24    2    1    2    0    0  0.20544793806E+03 -0.77094879007E+02 -0.61799732910E+03  0.66072780126E+03  0.80548450982E+02 0.  0.
         25    2    1    2    0    0 -0.18907066620E+03  0.19144333375E+03  0.19417092196E+03  0.35457732105E+03  0.12499785124E+03 0.  0.
         24    2    1    2    0    0  0.34040176852E+01  0.21432155221E+02 -0.49621118908E+02  0.97567682023E+02  0.81155853270E+02 0.  0.
        -13    1    5    5    0    0  0.32860921716E+02  0.46941064021E+01  0.47215918924E+01  0.33528618238E+02  0.00000000000E+00 0.  1.
         14    1    5    5    0    0 -0.29456904031E+02  0.16738048819E+02 -0.54342710800E+02  0.64039063785E+02  0.00000000000E+00 0. -1.
        -13    1    3    3    0    0  0.13482068608E+03 -0.87794292563E+02 -0.39277089478E+03  0.42444485036E+03  0.00000000000E+00 0.  1.
         14    1    3    3    0    0  0.70627251979E+02  0.10699413556E+02 -0.22522643431E+03  0.23628295090E+03  0.00000000000E+00 0. -1.
          5    1    4    4  501    0 -0.99334278189E+02  0.17834279455E+03  0.15139929958E+03  0.25419930981E+03  0.47000000000E+01 0. -1.
         -5    1    4    4    0  501 -0.89736388009E+02  0.13100539195E+02  0.42771622371E+02  0.10037801124E+03  0.47000000000E+01 0. -1.
          1    1    1    2  502    0 -0.43671217645E+02 -0.75323201597E+02  0.95615994398E+03  0.96011592968E+03  0.00000000000E+00 0. -1.
          1    1    1    2  503    0  0.23889928095E+02 -0.60457408366E+02 -0.89105920644E+03  0.89342729770E+03  0.00000000000E+00 0. -1.
<mgrwt>
<rscale>  0 0.75256409E+02</rscale>
<asrwt>0</asrwt>
<pdfrwt beam="1">  1        2 0.18809333E+00 0.87122662E+02</pdfrwt>
<pdfrwt beam="2">  1        2 0.24814432E+00 0.65006360E+02</pdfrwt>
<totfact> 0.43856324E+01</totfact>
</mgrwt>
</event>
<event>
13    1  0.2101801E-008  0.1075542E+03  0.7546771E-02  0.1308699E+00
          2   -1    0    0  503    0  0.00000000000E+00  0.00000000000E+00  0.57874345036E+03  0.57874345036E+03  0.00000000000E+00 0. -1.
          2   -1    0    0  502    0 -0.00000000000E+00 -0.00000000000E+00 -0.18859857647E+04  0.18859857647E+04  0.00000000000E+00 0. -1.
         24    2    1    2    0    0  0.82750286156E+02 -0.54436383191E+02 -0.21170051091E+03  0.24722944346E+03  0.80587602771E+02 0.  0.
         25    2    1    2    0    0 -0.59058904581E+02  0.35557569237E+02  0.13655798261E+03  0.19754910218E+03  0.12500108087E+03 0.  0.
         24    2    1    2    0    0 -0.11751012553E+02  0.57145973518E+02 -0.47997474274E+03  0.48984013413E+03  0.78510220648E+02 0.  0.
        -11    1    3    3    0    0  0.88445095225E+02 -0.50271748396E+02 -0.21614572415E+03  0.23889068132E+03  0.00000000000E+00 0.  1.
         12    1    3    3    0    0 -0.56948090682E+01 -0.41646347959E+01  0.44452132351E+01  0.83387621391E+01  0.00000000000E+00 0. -1.
        -13    1    5    5    0    0 -0.24671675606E+02  0.25312747375E+02 -0.69902365145E+02  0.78331139465E+02  0.00000000000E+00 0.  1.
         14    1    5    5    0    0  0.12920663054E+02  0.31833226142E+02 -0.41007237760E+03  0.41150899466E+03  0.00000000000E+00 0. -1.
          5    1    4    4  501    0 -0.90837011214E+02  0.46411313458E+02  0.12568883299E+03  0.16194179622E+03  0.47000000000E+01 0. -1.
         -5    1    4    4    0  501  0.31778106633E+02 -0.10853744221E+02  0.10869149620E+02  0.35607305968E+02  0.47000000000E+01 0. -1.
          1    1    1    2  502    0 -0.14192165508E+02  0.69968868098E+02 -0.11324394922E+04  0.11346877383E+04  0.00000000000E+00 0. -1.
          1    1    1    2  503    0  0.22517964847E+01 -0.10823602766E+03  0.38031444891E+03  0.39542279692E+03  0.00000000000E+00 0. -1.
<mgrwt>
<rscale>  0 0.87628162E+02</rscale>
<asrwt>0</asrwt>
<pdfrwt beam="1">  1        2 0.85109331E-01 0.10755424E+03</pdfrwt>
<pdfrwt beam="2">  1        2 0.27735085E+00 0.71393698E+02</pdfrwt>
<totfact> 0.94428464E+01</totfact>
</mgrwt>
</event>
<event>
13    1  0.2101801E-008  0.1724062E+03  0.7546771E-02  0.1264435E+00
          2   -1    0    0  502    0  0.00000000000E+00  0.00000000000E+00  0.37753878144E+04  0.37753878144E+04  0.00000000000E+00 0. -1.
          4   -1    0    0  503    0 -0.00000000000E+00 -0.00000000000E+00 -0.32874404327E+03  0.32874404327E+03  0.00000000000E+00 0. -1.
         24    2    1    2    0    0 -0.44768406071E+02  0.87979926754E+02  0.89453568789E+02  0.15372987930E+03  0.76721946832E+02 0.  0.
         25    2    1    2    0    0  0.26777710825E+03  0.15120076544E+03  0.21918547997E+04  0.22168489292E+04  0.12500184355E+03 0.  0.
         24    2    1    2    0    0 -0.57934894520E+02  0.81940169326E+01 -0.18017619506E+03  0.20602764807E+03  0.80995904753E+02 0.  0.
        -13    1    3    3    0    0  0.19932381191E+02  0.38844781999E+02  0.28079185145E+02  0.51910090993E+02  0.00000000000E+00 0.  1.
         14    1    3    3    0    0 -0.64700787263E+02  0.49135144755E+02  0.61374383644E+02  0.10181978830E+03  0.00000000000E+00 0. -1.
        -13    1    5    5    0    0 -0.31433481565E+02 -0.15159798349E+02 -0.16534532281E+02  0.38617017065E+02  0.00000000000E+00 0.  1.
         14    1    5    5    0    0 -0.26501412955E+02  0.23353815282E+02 -0.16364166278E+03  0.16741063100E+03  0.00000000000E+00 0. -1.
          5    1    4    4  501    0  0.12068635229E+02 -0.20242424084E+02  0.16532757327E+03  0.16706496992E+03  0.47000000000E+01 0.  1.
         -5    1    4    4    0  501  0.25570847302E+03  0.17144318953E+03  0.20265272264E+04  0.20497839593E+04  0.47000000000E+01 0.  1.
          1    1    1    2  502    0  0.31595263450E+02 -0.59736878213E+02  0.12305324398E+04  0.12323866441E+04  0.00000000000E+00 0. -1.
          3    1    1    2  503    0 -0.19666907110E+03 -0.18763783092E+03  0.11497915799E+03  0.29513875702E+03  0.00000000000E+00 0. -1.
<mgrwt>
<rscale>  0 0.10793900E+03</rscale>
<asrwt>0</asrwt>
<pdfrwt beam="1">  1        2 0.55520406E+00 0.67577772E+02</pdfrwt>
<pdfrwt beam="2">  1        4 0.48344715E-01 0.17240622E+03</pdfrwt>
<totfact> 0.24208542E+00</totfact>
</mgrwt>
</event>
<event>
13    1  0.2101801E-008  0.6719799E+02  0.7546771E-02  0.1419443E+00
          4   -1    0    0  503    0 -0.00000000000E+00  0.00000000000E+00  0.17360643626E+04  0.17360643626E+04  0.00000000000E+00 0. -1.
          2   -1    0    0  502    0  0.00000000000E+00 -0.00000000000E+00 -0.26024593136E+04  0.26024593136E+04  0.00000000000E+00 0. -1.
         24    2    1    2    0    0  0.47171183792E+02  0.15457016987E+03  0.49469519321E+03  0.52785233744E+03  0.88247934612E+02 0.  0.
         25    2    1    2    0    0  0.28559766199E+03 -0.48452253431E+02 -0.11165130924E+04  0.11602335251E+04  0.12500680794E+03 0.  0.
         24    2    1    2    0    0 -0.22765703852E+03 -0.14516582027E+03 -0.57694925298E+03  0.64216107700E+03  0.81237711296E+02 0.  0.
        -11    1    5    5    0    0 -0.21186074789E+03 -0.14767695943E+03 -0.56771139811E+03  0.62369038183E+03  0.00000000000E+00 0.  1.
         12    1    5    5    0    0 -0.15796290623E+02  0.25111391663E+01 -0.92378548734E+01  0.18470695169E+02  0.00000000000E+00 0. -1.
        -13    1    3    3    0    0 -0.27137319747E+01  0.12371660043E+03  0.36773409015E+03  0.38799680749E+03  0.00000000000E+00 0.  1.
         14    1    3    3    0    0  0.49884915767E+02  0.30853569447E+02  0.12696110306E+03  0.13985552996E+03  0.00000000000E+00 0. -1.
          5    1    4    4  501    0  0.24746182037E+03 -0.15282005650E+02 -0.10343051485E+04  0.10636165298E+04  0.47000000000E+01 0. -1.
         -5    1    4    4    0  501  0.38135841619E+02 -0.33170247780E+02 -0.82207943842E+02  0.96616995319E+02  0.47000000000E+01 0. -1.
          1    1    1    2  502    0 -0.40880447788E+02  0.19385321279E+02 -0.83637644863E+03  0.83759928696E+03  0.00000000000E+00 0. -1.
          3    1    1    2  503    0 -0.64231359475E+02  0.19662582545E+02  0.11687486498E+04  0.11706774496E+04  0.00000000000E+00 0. -1.
<mgrwt>
<rscale>  0 0.55138850E+02</rscale>
<asrwt>0</asrwt>
<pdfrwt beam="2">  1        2 0.38271460E+00 0.45243803E+02</pdfrwt>
<pdfrwt beam="1">  1        4 0.25530358E+00 0.67197994E+02</pdfrwt>
<totfact> 0.19423113E-01</totfact>
</mgrwt>
</event>
<event>
13    1  0.2101801E-008  0.8924758E+02  0.7546771E-02  0.1472433E+00
          2   -1    0    0  503    0  0.00000000000E+00  0.00000000000E+00  0.56369236370E+03  0.56369236370E+03  0.00000000000E+00 0. -1.
          2   -1    0    0  502    0 -0.00000000000E+00 -0.00000000000E+00 -0.63774949793E+03  0.63774949793E+03  0.00000000000E+00 0. -1.
         24    2    1    2    0    0 -0.40083004855E+02 -0.84398079825E+02 -0.21665406161E+03  0.24921331846E+03  0.80240965406E+02 0.  0.
         25    2    1    2    0    0 -0.12000952417E+02  0.45422690525E+02  0.26939959298E+03  0.30068052050E+03  0.12500156414E+03 0.  0.
         24    2    1    2    0    0 -0.24021915957E+02 -0.66811035498E+01 -0.16616099472E+03  0.18693056963E+03  0.81926016047E+02 0.  0.
        -11    1    5    5    0    0 -0.21516036340E+02 -0.43040688914E+02 -0.79663122164E+02  0.93068006076E+02  0.00000000000E+00 0.  1.
         12    1    5    5    0    0 -0.25058796175E+01  0.36359585364E+02 -0.86497872556E+02  0.93862563555E+02  0.00000000000E+00 0. -1.
        -13    1    3    3    0    0 -0.15069417979E+02 -0.63830106799E+00  0.53528507455E+00  0.15092425802E+02  0.00000000000E+00 0.  1.
         14    1    3    3    0    0 -0.25013586876E+02 -0.83759778757E+02 -0.21718934668E+03  0.23412089266E+03  0.00000000000E+00 0. -1.
          5    1    4    4  501    0  0.31506315084E+01 -0.42112187107E+02  0.11338221854E+03  0.12108253492E+03  0.47000000000E+01 0.  1.
         -5    1    4    4    0  501 -0.15151583925E+02  0.87534877632E+02  0.15601737444E+03  0.17959798558E+03  0.47000000000E+01 0.  1.
          1    1    1    2  502    0  0.13227826231E+02 -0.18816279328E+02 -0.20391592249E+03  0.20520899396E+03  0.00000000000E+00 0. -1.
          1    1    1    2  503    0  0.62878046997E+02  0.64472772178E+02  0.24327425160E+03  0.25940845908E+03  0.00000000000E+00 0. -1.
<mgrwt>
<rscale>  0 0.45307264E+02</rscale>
<asrwt>0</asrwt>
<pdfrwt beam="1">  1        2 0.82895936E-01 0.89247579E+02</pdfrwt>
<pdfrwt beam="2">  1        2 0.93786691E-01 0.23000603E+02</pdfrwt>
<totfact> 0.47456676E+02</totfact>
</mgrwt>
</event>
<event>
13    1  0.2101801E-008  0.1238935E+03  0.7546771E-02  0.1347405E+00
          2   -1    0    0  503    0  0.00000000000E+00  0.00000000000E+00  0.10722151487E+04  0.10722151487E+04  0.00000000000E+00 0. -1.
         -1   -1    0    0    0  501 -0.00000000000E+00 -0.00000000000E+00 -0.11542989687E+04  0.11542989687E+04  0.00000000000E+00 0.  1.
         24    2    1    2    0    0 -0.15082230662E+02 -0.22763842816E+02 -0.38746807969E+03  0.39663730011E+03  0.80274334886E+02 0.  0.
         25    2    1    2    0    0 -0.97432286339E+02  0.80378643643E+02  0.13097732365E+03  0.22075377586E+03  0.12499357373E+03 0.  0.
         24    2    1    2    0    0 -0.41888119070E+02 -0.94922755983E+02  0.44124246902E+02  0.13824041305E+03  0.79990740169E+02 0.  0.
        -13    1    5    5    0    0 -0.49234826162E+02 -0.19955885406E+02  0.50008535418E+01  0.53360228688E+02  0.00000000000E+00 0.  1.
         14    1    5    5    0    0  0.73467070918E+01 -0.74966870577E+02  0.39123393360E+02  0.84880184361E+02  0.00000000000E+00 0. -1.
        -13    1    3    3    0    0 -0.13268898055E+02  0.29434358920E+02 -0.16383088322E+03  0.16698204525E+03  0.00000000000E+00 0.  1.
         14    1    3    3    0    0 -0.18133326079E+01 -0.52198201736E+02 -0.22363719647E+03  0.22965525486E+03  0.00000000000E+00 0. -1.
          5    1    4    4  502    0 -0.47764884568E+02  0.10315647586E+03  0.11895972086E+03  0.16460937974E+03  0.47000000000E+01 0. -1.
         -5    1    4    4    0  502 -0.49667401771E+02 -0.22777832220E+02  0.12017602782E+02  0.56144396123E+02  0.47000000000E+01 0. -1.
          1    1    1    2  503    0  0.11247031805E+03  0.50783769649E+02  0.79509416357E+03  0.80461375370E+03  0.00000000000E+00 0. -1.
         -2    1    1    2    0  501  0.41932318017E+02 -0.13475814493E+02 -0.66481147437E+03  0.66626887465E+03  0.00000000000E+00 0.  1.
<mgrwt>
<rscale>  0 0.73870325E+02</rscale>
<asrwt>0</asrwt>
<pdfrwt beam="1">  1        2 0.15767870E+00 0.12389348E+03</pdfrwt>
<pdfrwt beam="2">  1       -1 0.16974985E+00 0.44044487E+02</pdfrwt>
<totfact> 0.94472297E+00</totfact>
</mgrwt>
</event>
<event>
13    1  0.2101801E-008  0.1646944E+03  0.7546771E-02  0.1223517E+00
          2   -1    0    0  502    0  0.00000000000E+00  0.00000000000E+00  0.17513841581E+04  0.17513841581E+04  0.00000000000E+00 0. -1.
          2   -1    0    0  503    0 -0.00000000000E+00 -0.00000000000E+00 -0.23866179732E+04  0.23866179732E+04  0.00000000000E+00 0. -1.
         24    2    1    2    0    0 -0.84683148484E+02 -0.27112441124E+03 -0.52559903228E+03  0.60330655355E+03  0.83933144881E+02 0.  0.
         25    2    1    2    0    0  0.55517820649E+02  0.31518651996E+03  0.38333119379E+02  0.34571497850E+03  0.12499859016E+03 0.  0.
         24    2    1    2    0    0 -0.11983835140E+02 -0.10696490068E+02  0.10311718680E+04  0.10345181011E+04  0.81573605431E+02 0.  0.
        -13    1    5    5    0    0  0.10633749528E+02  0.28361758788E+02  0.21794859495E+03  0.22004330490E+03  0.00000000000E+00 0.  1.
         14    1    5    5    0    0 -0.22617584669E+02 -0.39058248857E+02  0.81322327300E+03  0.81447479623E+03  0.00000000000E+00 0. -1.
        -13    1    3    3    0    0  0.13284145418E+02 -0.49375473308E+02 -0.12517199435E+03  0.13521255139E+03  0.00000000000E+00 0.  1.
         14    1    3    3    0    0 -0.97967293901E+02 -0.22174893794E+03 -0.40042703793E+03  0.46809400216E+03  0.00000000000E+00 0. -1.
          5    1    4    4  501    0  0.26199107328E+02  0.25093208563E+03  0.78576867240E+02  0.26429097390E+03  0.47000000000E+01 0. -1.
         -5    1    4    4    0  501  0.29318713322E+02  0.64254434337E+02 -0.40243747861E+02  0.81424004598E+02  0.47000000000E+01 0. -1.
          1    1    1    2  502    0 -0.12573014682E+03 -0.24367226979E+02  0.47496918086E+03  0.49193246929E+03  0.00000000000E+00 0. -1.
          1    1    1    2  503    0  0.16687930980E+03 -0.89983916700E+01 -0.16541089510E+04  0.16625300288E+04  0.00000000000E+00 0. -1.
<mgrwt>
<rscale>  0 0.13269082E+03</rscale>
<asrwt>0</asrwt>
<pdfrwt beam="1">  1        2 0.25755650E+00 0.10690622E+03</pdfrwt>
<pdfrwt beam="2">  1        2 0.35097323E+00 0.16469436E+03</pdfrwt>
<totfact> 0.10468225E+01</totfact>
</mgrwt>
</event>
<event>
13    1  0.2101801E-008  0.1949287E+03  0.7546771E-02  0.1160282E+00
          2   -1    0    0  503    0  0.00000000000E+00  0.00000000000E+00  0.20500552886E+04  0.20500552886E+04  0.00000000000E+00 0. -1.
          2   -1    0    0  502    0 -0.00000000000E+00 -0.00000000000E+00 -0.76616627198E+03  0.76616627198E+03  0.00000000000E+00 0. -1.
         24    2    1    2    0    0  0.83526242381E+02 -0.66849896445E+02  0.34155862449E+02  0.13831037355E+03  0.80731621252E+02 0.  0.
         25    2    1    2    0    0  0.46240364082E+03  0.11181255596E+03 -0.84598873682E+02  0.49909963805E+03  0.12499721821E+03 0.  0.
         24    2    1    2    0    0 -0.51403766774E+02  0.52420110727E+02  0.22487020468E+02  0.11075294706E+03  0.79814371800E+02 0.  0.
        -11    1    3    3    0    0  0.90498175145E+02 -0.78903628792E+02  0.29614718284E+02  0.12366379373E+03  0.00000000000E+00 0.  1.
         12    1    3    3    0    0 -0.69719327637E+01  0.12053732347E+02  0.45411441647E+01  0.14646579815E+02  0.00000000000E+00 0. -1.
        -13    1    5    5    0    0 -0.49177752267E+02  0.70081510257E+02  0.30956871074E+02  0.91039536821E+02  0.00000000000E+00 0.  1.
         14    1    5    5    0    0 -0.22260145068E+01 -0.17661399530E+02 -0.84698506068E+01  0.19713410239E+02  0.00000000000E+00 0. -1.
          5    1    4    4  501    0  0.12683352032E+02 -0.17603813142E+02 -0.12809671135E+02  0.25630827737E+02  0.47000000000E+01 0.  1.
         -5    1    4    4    0  501  0.44972028879E+03  0.12941636910E+03 -0.71789202547E+02  0.47346881032E+03  0.47000000000E+01 0.  1.
          1    1    1    2  502    0 -0.27805156206E+03  0.54182717264E+02 -0.31283021392E+03  0.42203220346E+03  0.00000000000E+00 0. -1.
          1    1    1    2  503    0 -0.21647455437E+03 -0.15156548750E+03  0.16246752213E+04  0.16460263985E+04  0.00000000000E+00 0. -1.
<mgrwt>
<rscale>  0 0.18799473E+03</rscale>
<asrwt>0</asrwt>
<pdfrwt beam="1">  1        2 0.30147872E+00 0.18130747E+03</pdfrwt>
<pdfrwt beam="2">  1        2 0.11267151E+00 0.19492865E+03</pdfrwt>
<totfact> 0.50928790E+01</totfact>
</mgrwt>
</event>
<event>
13    1  0.2101801E-008  0.1217169E+03  0.7546771E-02  0.1309336E+00
          2   -1    0    0  502    0  0.00000000000E+00  0.00000000000E+00  0.37707723751E+03  0.37707723751E+03  0.00000000000E+00 0. -1.
          2   -1    0    0  503    0 -0.00000000000E+00 -0.00000000000E+00 -0.31864285146E+04  0.31864285146E+04  0.00000000000E+00 0. -1.
         24    2    1    2    0    0  0.53959429456E+02  0.36512344714E+02 -0.86924985167E+03  0.87507719015E+03  0.76941619117E+02 0.  0.
         25    2    1    2    0    0  0.15037362333E+03  0.66792179851E+02 -0.65816010084E+03  0.68983722593E+03  0.12500903192E+03 0.  0.
         24    2    1    2    0    0  0.14624690646E+02 -0.14138928028E+02  0.62656398004E+02  0.10316663673E+03  0.79396094743E+02 0.  0.
        -11    1    5    5    0    0  0.40091634869E+02 -0.31606462688E+02  0.40314510033E+02  0.65050498763E+02  0.00000000000E+00 0.  1.
         12    1    5    5    0    0 -0.25466944223E+02  0.17467534660E+02  0.22341887971E+02  0.38116137964E+02  0.00000000000E+00 0. -1.
        -13    1    3    3    0    0 -0.68624251171E+01 -0.12756358672E+02 -0.31439870626E+03  0.31473221008E+03  0.00000000000E+00 0.  1.
         14    1    3    3    0    0  0.60821854573E+02  0.49268703387E+02 -0.55485114541E+03  0.56034498007E+03  0.00000000000E+00 0. -1.
          5    1    4    4  501    0  0.15024519769E+03  0.93347086523E+02 -0.52633202371E+03  0.55527901741E+03  0.47000000000E+01 0.  1.
         -5    1    4    4    0  501  0.12842563976E+00 -0.26554906672E+02 -0.13182807713E+03  0.13455820853E+03  0.47000000000E+01 0.  1.
          1    1    1    2  502    0 -0.15714644352E+03 -0.99817990648E+02  0.24326289211E+03  0.30632575903E+03  0.00000000000E+00 0. -1.
          1    1    1    2  503    0 -0.61811299906E+02  0.10652394110E+02 -0.15878606146E+04  0.15890989402E+04  0.00000000000E+00 0. -1.
<mgrwt>
<rscale>  0 0.87374986E+02</rscale>
<asrwt>0</asrwt>
<pdfrwt beam="1">  1        2 0.55452536E-01 0.12171693E+03</pdfrwt>
<pdfrwt beam="2">  1        2 0.46859242E+00 0.62722486E+02</pdfrwt>
<totfact> 0.34514313E+01</totfact>
</mgrwt>
</event>
<event>
13    1  0.2101801E-008  0.8354230E+02  0.7546771E-02  0.1465887E+00
          2   -1    0    0  503    0  0.00000000000E+00  0.00000000000E+00  0.13459222728E+04  0.13459222728E+04  0.00000000000E+00 0. -1.
         -3   -1    0    0    0  501 -0.00000000000E+00 -0.00000000000E+00 -0.23672946604E+04  0.23672946604E+04  0.00000000000E+00 0.  1.
         24    2    1    2    0    0 -0.21538759405E+03  0.88932126085E+02 -0.12118957198E+04  0.12369457921E+04  0.83922096521E+02 0.  0.
         25    2    1    2    0    0 -0.20059704916E+03 -0.35218759413E+02  0.81129537263E+03  0.84576122617E+03  0.12502932817E+03 0.  0.
         24    2    1    2    0    0  0.35107697484E+03 -0.12721685572E+03 -0.16755144065E+03  0.41910171291E+03  0.90186417271E+02 0.  0.
        -11    1    3    3    0    0 -0.32004802178E+02  0.46841366066E+02 -0.36657379741E+03  0.37093769003E+03  0.00000000000E+00 0.  1.
         12    1    3    3    0    0 -0.18338279187E+03  0.42090760019E+02 -0.84532192238E+03  0.86600810209E+03  0.00000000000E+00 0. -1.
        -13    1    5    5    0    0  0.14691540951E+03 -0.98903492751E+02 -0.62918586580E+02  0.18794889456E+03  0.00000000000E+00 0.  1.
         14    1    5    5    0    0  0.20416156533E+03 -0.28313362967E+02 -0.10463285407E+03  0.23115281835E+03  0.00000000000E+00 0. -1.
          5    1    4    4  502    0 -0.17203786673E+03 -0.30096161973E+02  0.79094279837E+03  0.81000951034E+03  0.47000000000E+01 0.  1.
         -5    1    4    4    0  502 -0.28559182436E+02 -0.51225974395E+01  0.20352574260E+02  0.35751715832E+02  0.47000000000E+01 0.  1.
          1    1    1    2  503    0 -0.34490622872E+01  0.25520251022E+02  0.37655784487E+03  0.37743739849E+03  0.00000000000E+00 0. -1.
         -4    1    1    2    0  501  0.68356730657E+02  0.47983238023E+02 -0.82977844468E+03  0.83397080345E+03  0.00000000000E+00 0.  1.
<mgrwt>
<rscale>  0 0.46383224E+02</rscale>
<asrwt>0</asrwt>
<pdfrwt beam="1">  1        2 0.19792975E+00 0.25752267E+02</pdfrwt>
<pdfrwt beam="2">  1       -3 0.34813156E+00 0.83542295E+02</pdfrwt>
<totfact> 0.35432082E-01</totfact>
</mgrwt>
</event>
<event>
13    1  0.2101801E-008  0.1070098E+03  0.7546771E-02  0.1431304E+00
          2   -1    0    0  503    0  0.00000000000E+00  0.00000000000E+00  0.22568637131E+04  0.22568637131E+04  0.00000000000E+00 0. -1.
          2   -1    0    0  502    0 -0.00000000000E+00 -0.00000000000E+00 -0.14935261314E+04  0.14935261314E+04  0.00000000000E+00 0. -1.
         24    2    1    2    0    0 -0.36696315415E+03  0.22577283312E+03 -0.79855255323E+03  0.91099097858E+03  0.81136022274E+02 0.  0.
         25    2    1    2    0    0  0.34321921190E+03 -0.16455413704E+03  0.11293388553E+04  0.11982941049E+04  0.12500008134E+03 0.  0.
         24    2    1    2    0    0  0.81101735136E+02  0.21375812166E+02 -0.24688982363E+03  0.27300791248E+03  0.80896962094E+02 0.  0.
        -11    1    5    5    0    0  0.39977378260E+02 -0.29697984181E+02 -0.87914604287E+02  0.10104028248E+03  0.00000000000E+00 0.  1.
         12    1    5    5    0    0  0.41124356876E+02  0.51073796347E+02 -0.15897521934E+03  0.17196762999E+03  0.00000000000E+00 0. -1.
        -13    1    3    3    0    0 -0.11729315014E+03  0.68701093683E+02 -0.17861494898E+03  0.22445672933E+03  0.00000000000E+00 0.  1.
         14    1    3    3    0    0 -0.24967000401E+03  0.15707173943E+03 -0.61993760425E+03  0.68653424925E+03  0.00000000000E+00 0. -1.
          5    1    4    4  501    0  0.15468726590E+03 -0.39655311784E+02  0.63287743576E+03  0.65273013771E+03  0.47000000000E+01 0.  1.
         -5    1    4    4    0  501  0.18853194599E+03 -0.12489882526E+03  0.49646141958E+03  0.54556396723E+03  0.47000000000E+01 0.  1.
          1    1    1    2  502    0 -0.80420016715E+02 -0.70691488727E+02 -0.33583409009E+03  0.35249000232E+03  0.00000000000E+00 0. -1.
          1    1    1    2  503    0  0.23062223832E+02 -0.11903019511E+02  0.10152751932E+04  0.10156068462E+04  0.00000000000E+00 0. -1.
<mgrwt>
<rscale>  0 0.52699193E+02</rscale>
<asrwt>0</asrwt>
<pdfrwt beam="1">  1        2 0.33189172E+00 0.25952804E+02</pdfrwt>
<pdfrwt beam="2">  1        2 0.21963620E+00 0.10700982E+03</pdfrwt>
<totfact> 0.20442329E+01</totfact>
</mgrwt>
</event>
<event>
13    1  0.2101801E-008  0.1453276E+03  0.7546771E-02  0.1243508E+00
          2   -1    0    0  502    0  0.00000000000E+00  0.00000000000E+00  0.20375659246E+04  0.20375659246E+04  0.00000000000E+00 0. -1.
          2   -1    0    0  503    0 -0.00000000000E+00 -0.00000000000E+00 -0.12102499332E+04  0.12102499332E+04  0.00000000000E+00 0. -1.
         24    2    1    2    0    0 -0.19415301839E+02  0.14596052038E+02 -0.15339485225E+03  0.17574025400E+03  0.82247537966E+02 0.  0.
         25    2    1    2    0    0  0.13561328113E+03 -0.22561435452E+03  0.13153673388E+03  0.31971844435E+03  0.12500068926E+03 0.  0.
         24    2    1    2    0    0  0.57654874322E+02  0.46807678446E+02 -0.25589518892E+01  0.10952257106E+03  0.80458697741E+02 0.  0.
        -11    1    5    5    0    0  0.77533651580E+02  0.44372181711E+02 -0.40535903552E-02  0.89332847562E+02  0.00000000000E+00 0.  1.
         12    1    5    5    0    0 -0.19878777258E+02  0.24354967353E+01 -0.25548982989E+01  0.20189723498E+02  0.00000000000E+00 0. -1.
        -11    1    3    3    0    0  0.36370664637E+01  0.16331204851E+02  0.35484843069E+01  0.17103457113E+02  0.00000000000E+00 0.  1.
         12    1    3    3    0    0 -0.23052368303E+02 -0.17351528130E+01 -0.15694333655E+03  0.15863679689E+03  0.00000000000E+00 0. -1.
          5    1    4    4  501    0  0.15555454797E+03 -0.22113700393E+03  0.12318362791E+03  0.29714489410E+03  0.47000000000E+01 0. -1.
         -5    1    4    4    0  501 -0.19941266845E+02 -0.44773505853E+01  0.83531059659E+01  0.22573550251E+02  0.47000000000E+01 0. -1.
          1    1    1    2  502    0 -0.10015856533E+03  0.10761973652E+03  0.17417686235E+04  0.17479621517E+04  0.00000000000E+00 0. -1.
          1    1    1    2  503    0 -0.73694288281E+02  0.56590887511E+02 -0.89003556187E+03  0.89487243675E+03  0.00000000000E+00 0. -1.
<mgrwt>
<rscale>  0 0.11975148E+03</rscale>
<asrwt>0</asrwt>
<pdfrwt beam="1">  1        2 0.29964205E+00 0.14532758E+03</pdfrwt>
<pdfrwt beam="2">  1        2 0.17797793E+00 0.98676499E+02</pdfrwt>
<totfact> 0.29654261E+01</totfact>
</mgrwt>
</event>
<event>
13    1  0.2101801E-008  0.7399080E+02  0.7546771E-02  0.1498710E+00
          2   -1    0    0  503    0  0.00000000000E+00  0.00000000000E+00  0.84750999204E+03  0.84750999204E+03  0.00000000000E+00 0. -1.
          2   -1    0    0  502    0 -0.00000000000E+00 -0.00000000000E+00 -0.52953743746E+03  0.52953743746E+03  0.00000000000E+00 0. -1.
         24    2    1    2    0    0 -0.78564155251E+02  0.73485952611E+02 -0.98245916622E+02  0.16654124819E+03  0.80692103049E+02 0.  0.
         25    2    1    2    0    0  0.11208236073E+03 -0.13653595394E+03  0.54463044633E+03  0.58604768685E+03  0.12500018355E+03 0.  0.
         24    2    1    2    0    0  0.15072451991E+02  0.30961060915E+02  0.55004423826E+02  0.10240249687E+03  0.79215015131E+02 0.  0.
        -11    1    3    3    0    0  0.19063476921E+01 -0.47448622628E+01 -0.39568695579E+02  0.39897738649E+02  0.00000000000E+00 0.  1.
         12    1    3    3    0    0 -0.80470502944E+02  0.78230814874E+02 -0.58677221043E+02  0.12664350954E+03  0.00000000000E+00 0. -1.
        -11    1    5    5    0    0  0.40369668914E+02  0.41591944545E+02  0.44282119745E+02  0.72941799733E+02  0.00000000000E+00 0.  1.
         12    1    5    5    0    0 -0.25297216923E+02 -0.10630883630E+02  0.10722304082E+02  0.29460697134E+02  0.00000000000E+00 0. -1.
          5    1    4    4  501    0 -0.55018892949E+01 -0.26929281357E+02  0.13262674057E+02  0.30877912872E+02  0.47000000000E+01 0.  1.
         -5    1    4    4    0  501  0.11758425003E+03 -0.10960667258E+03  0.53136777227E+03  0.55516977398E+03  0.47000000000E+01 0.  1.
          1    1    1    2  502    0 -0.49481044844E+02  0.55147910319E+02 -0.34803174561E+03  0.35583108600E+03  0.00000000000E+00 0. -1.
          1    1    1    2  503    0  0.89038737061E+00 -0.23058969908E+02  0.16461534665E+03  0.16622491160E+03  0.00000000000E+00 0. -1.
<mgrwt>
<rscale>  0 0.41320977E+02</rscale>
<asrwt>0</asrwt>
<pdfrwt beam="1">  1        2 0.12463382E+00 0.23076154E+02</pdfrwt>
<pdfrwt beam="2">  1        2 0.77873152E-01 0.73990802E+02</pdfrwt>
<totfact> 0.37374304E+02</totfact>
</mgrwt>
</event>
<event>
13    1  0.2101801E-008  0.1132652E+03  0.7546771E-02  0.1273913E+00
          2   -1    0    0  502    0  0.00000000000E+00  0.00000000000E+00  0.28775477545E+03  0.28775477545E+03  0.00000000000E+00 0. -1.
          2   -1    0    0  503    0 -0.00000000000E+00 -0.00000000000E+00 -0.14625799582E+04  0.14625799582E+04  0.00000000000E+00 0. -1.
         24    2    1    2    0    0 -0.27827025555E+02  0.10171572383E+02 -0.30795351807E+03  0.31982369220E+03  0.81080334041E+02 0.  0.
         25    2    1    2    0    0  0.23099261076E+03 -0.15604060256E+03 -0.31400217106E+03  0.43809636572E+03  0.12499922539E+03 0.  0.
         24    2    1    2    0    0 -0.27597567665E+02  0.65719253822E+02 -0.27200000114E+03  0.29243217178E+03  0.80323896877E+02 0.  0.
        -13    1    5    5    0    0  0.25203694156E+02  0.77931330623E+01 -0.43626345610E+02  0.50982518115E+02  0.00000000000E+00 0.  1.
         14    1    5    5    0    0 -0.52801261821E+02  0.57926120759E+02 -0.22837365553E+03  0.24144965367E+03  0.00000000000E+00 0. -1.
        -13    1    3    3    0    0 -0.11003734681E+01  0.35970070044E+02 -0.67274580879E+02  0.76294993238E+02  0.00000000000E+00 0.  1.
         14    1    3    3    0    0 -0.26726652086E+02 -0.25798497661E+02 -0.24067893719E+03  0.24352869896E+03  0.00000000000E+00 0. -1.
          5    1    4    4  501    0  0.37198677763E+02 -0.37263895043E+02 -0.31190318100E+01  0.52954299736E+02  0.47000000000E+01 0.  1.
         -5    1    4    4    0  501  0.19379393300E+03 -0.11877670752E+03 -0.31088313925E+03  0.38514206598E+03  0.47000000000E+01 0.  1.
          1    1    1    2  502    0 -0.10942798473E+03  0.18200402796E+02  0.19024867003E+03  0.22022782511E+03  0.00000000000E+00 0. -1.
          1    1    1    2  503    0 -0.66140032809E+02  0.61949373560E+02 -0.47111816255E+03  0.47975467888E+03  0.00000000000E+00 0. -1.
<mgrwt>
<rscale>  0 0.10309811E+03</rscale>
<asrwt>0</asrwt>
<pdfrwt beam="1">  1        2 0.42316879E-01 0.11326524E+03</pdfrwt>
<pdfrwt beam="2">  1        2 0.21508529E+00 0.93843621E+02</pdfrwt>
<totfact> 0.31076068E+02</totfact>
</mgrwt>
</event>
<event>
13    1  0.2101801E-008  0.1697573E+03  0.7546771E-02  0.1274481E+00
          2   -1    0    0  503    0  0.00000000000E+00  0.00000000000E+00  0.30449540033E+04  0.30449540033E+04  0.00000000000E+00 0. -1.
          2   -1    0    0  502    0 -0.00000000000E+00 -0.00000000000E+00 -0.13200578080E+04  0.13200578080E+04  0.00000000000E+00 0. -1.
         24    2    1    2    0    0 -0.80892593605E+02 -0.63796903676E+02 -0.10490711580E+04  0.10567353565E+04  0.74334799087E+02 0.  0.
         25    2    1    2    0    0 -0.27557405322E+02  0.10701031362E+03  0.51348404316E+03  0.53990071469E+03  0.12496520049E+03 0.  0.
         24    2    1    2    0    0 -0.26873456947E+02  0.10316596011E+03  0.15212026341E+03  0.20231955268E+03  0.80169999643E+02 0.  0.
        -13    1    5    5    0    0 -0.35274361935E+02  0.11205219352E+03  0.14892497859E+03  0.18968032035E+03  0.00000000000E+00 0.  1.
         14    1    5    5    0    0  0.84009049881E+01 -0.88862334058E+01  0.31952848256E+01  0.12639232329E+02  0.00000000000E+00 0. -1.
        -13    1    3    3    0    0 -0.54363105667E+02 -0.52750100377E+01 -0.30144839887E+03  0.30635650829E+03  0.00000000000E+00 0.  1.
         14    1    3    3    0    0 -0.26529487938E+02 -0.58521893639E+02 -0.74762275916E+03  0.75037884816E+03  0.00000000000E+00 0. -1.
          5    1    4    4  501    0  0.21797692588E+02  0.84375937303E+02  0.16012849689E+03  0.18236683831E+03  0.47000000000E+01 0.  1.
         -5    1    4    4    0  501 -0.49355097910E+02  0.22634376319E+02  0.35335554627E+03  0.35753387638E+03  0.47000000000E+01 0.  1.
          1    1    1    2  502    0  0.19720728678E+03 -0.15333453081E+03 -0.16012141308E+03  0.29671713672E+03  0.00000000000E+00 0. -1.
          1    1    1    2  503    0 -0.61883830904E+02  0.69551607527E+01  0.22684844598E+04  0.22693390507E+04  0.00000000000E+00 0. -1.
<mgrwt>
<rscale>  0 0.10281719E+03</rscale>
<asrwt>0</asrwt>
<pdfrwt beam="1">  1        2 0.44778735E+00 0.62273452E+02</pdfrwt>
<pdfrwt beam="2">  1        2 0.19412615E+00 0.16975732E+03</pdfrwt>
<totfact> 0.87701805E+00</totfact>
</mgrwt>
</event>
<event>
13    1  0.2101801E-008  0.1542720E+03  0.7546771E-02  0.1240768E+00
          2   -1    0    0  503    0  0.00000000000E+00  0.00000000000E+00  0.12735990478E+04  0.12735990478E+04  0.00000000000E+00 0. -1.
         -1   -1    0    0    0  501 -0.00000000000E+00 -0.00000000000E+00 -0.43782870604E+03  0.43782870604E+03  0.00000000000E+00 0.  1.
         24    2    1    2    0    0  0.10302386691E+03  0.12064801327E+03 -0.50556128524E+02  0.18608185247E+03  0.83070292081E+02 0.  0.
         25    2    1    2    0    0 -0.17568220888E+03 -0.98309128223E+02  0.41597378296E+03  0.47873516445E+03  0.12499698543E+03 0.  0.
         24    2    1    2    0    0  0.72883334499E+01 -0.57977276892E+02  0.15963100434E+02  0.10057293232E+03  0.80284554558E+02 0.  0.
        -11    1    5    5    0    0 -0.35751075163E+02 -0.33902116740E+02  0.13993481461E+02  0.51218262546E+02  0.00000000000E+00 0.  1.
         12    1    5    5    0    0  0.43039408613E+02 -0.24075160152E+02  0.19696189731E+01  0.49354669779E+02  0.00000000000E+00 0. -1.
        -11    1    3    3    0    0  0.61809969482E+02  0.18797618807E+02  0.12286924926E+01  0.64616812715E+02  0.00000000000E+00 0.  1.
         12    1    3    3    0    0  0.41213897424E+02  0.10185039447E+03 -0.51784821017E+02  0.12146503975E+03  0.00000000000E+00 0. -1.
          5    1    4    4  502    0 -0.10425230796E+03 -0.92167521599E+01  0.10903438146E+03  0.15120872520E+03  0.47000000000E+01 0.  1.
         -5    1    4    4    0  502 -0.71429900912E+02 -0.89092376064E+02  0.30693940150E+03  0.32752643925E+03  0.47000000000E+01 0.  1.
          1    1    1    2  503    0  0.15616430053E+03 -0.30497152856E+02  0.67766752059E+03  0.69609671278E+03  0.00000000000E+00 0. -1.
         -2    1    1    2    0  501 -0.90794292006E+02  0.66135544698E+02 -0.22327793367E+03  0.24994109185E+03  0.00000000000E+00 0.  1.
<mgrwt>
<rscale>  0 0.12142300E+03</rscale>
<asrwt>0</asrwt>
<pdfrwt beam="1">  1        2 0.18729398E+00 0.15427205E+03</pdfrwt>
<pdfrwt beam="2">  1       -1 0.64386574E-01 0.95568484E+02</pdfrwt>
<totfact> 0.60422102E+01</totfact>
</mgrwt>
</event>
<event>
13    1  0.2101801E-008  0.2014677E+03  0.7546771E-02  0.1295898E+00
          2   -1    0    0  503    0  0.00000000000E+00  0.00000000000E+00  0.28369069658E+04  0.28369069658E+04  0.00000000000E+00 0. -1.
          2   -1    0    0  502    0 -0.00000000000E+00 -0.00000000000E+00 -0.32062430400E+04  0.32062430400E+04  0.00000000000E+00 0. -1.
         24    2    1    2    0    0  0.47095258278E+02 -0.73648634514E+02 -0.30969391023E+03  0.33140128073E+03  0.79211148926E+02 0.  0.
         25    2    1    2    0    0 -0.16458890660E+03  0.16997818378E+03 -0.18347919208E+03  0.32445640957E+03  0.12500102659E+03 0.  0.
         24    2    1    2    0    0 -0.36933389778E+02  0.77864613852E+02 -0.10169487392E+03  0.15605491785E+03  0.81143802195E+02 0.  0.
        -11    1    3    3    0    0  0.60049039757E+02 -0.22246946552E+02 -0.18979354940E+03  0.20030577925E+03  0.00000000000E+00 0.  1.
         12    1    3    3    0    0 -0.12953781479E+02 -0.51401687962E+02 -0.11990036083E+03  0.13109550148E+03  0.00000000000E+00 0. -1.
        -13    1    5    5    0    0  0.15527063863E+02  0.34066095581E+02 -0.51799606891E+01  0.37794451618E+02  0.00000000000E+00 0.  1.
         14    1    5    5    0    0 -0.52460453641E+02  0.43798518271E+02 -0.96514913228E+02  0.11826046624E+03  0.00000000000E+00 0. -1.
          5    1    4    4  501    0 -0.17251499114E+03  0.18125431454E+03 -0.18271637883E+03  0.30987402893E+03  0.47000000000E+01 0. -1.
         -5    1    4    4    0  501  0.79260845474E+01 -0.11276130759E+02 -0.76281324671E+00  0.14582380643E+02  0.47000000000E+01 0. -1.
          1    1    1    2  502    0  0.42222467814E+02 -0.74172572171E+01 -0.24989664331E+04  0.24993341086E+04  0.00000000000E+00 0. -1.
          1    1    1    2  503    0  0.11220457028E+03 -0.16677690590E+03  0.27244983352E+04  0.27319032890E+04  0.00000000000E+00 0. -1.
<mgrwt>
<rscale>  0 0.92933963E+02</rscale>
<asrwt>0</asrwt>
<pdfrwt beam="1">  1        2 0.41719220E+00 0.20146769E+03</pdfrwt>
<pdfrwt beam="2">  1        2 0.47150633E+00 0.42869016E+02</pdfrwt>
<totfact> 0.12903189E+00</totfact>
</mgrwt>
</event>
<event>
13    1  0.2101801E-008  0.2313587E+03  0.7546771E-02  0.1272442E+00
         -3   -1    0    0    0  502 -0.00000000000E+00  0.00000000000E+00  0.10308287307E+04  0.10308287307E+04  0.00000000000E+00 0.  1.
         -1   -1    0    0    0  501  0.00000000000E+00 -0.00000000000E+00 -0.11906710806E+04  0.11906710806E+04  0.00000000000E+00 0.  1.
         24    2    1    2    0    0 -0.10217302926E+03 -0.96118006757E+02  0.23403554634E+03  0.28511544820E+03  0.82705397154E+02 0.  0.
         25    2    1    2    0    0  0.24672537967E+03 -0.23615244442E+03 -0.20932045117E+03  0.41961797619E+03  0.12499121842E+03 0.  0.
         24    2    1    2    0    0  0.72768048413E+02  0.10005093117E+03 -0.72035060559E+02  0.16408712325E+03  0.80188255804E+02 0.  0.
        -13    1    5    5    0    0  0.24808707441E+02  0.94896133813E+02 -0.57556038693E+02  0.11372530839E+03  0.00000000000E+00 0.  1.
         14    1    5    5    0    0  0.47959340972E+02  0.51547973596E+01 -0.14479021866E+02  0.50361814865E+02  0.00000000000E+00 0. -1.
        -13    1    3    3    0    0 -0.17336307009E+02 -0.72653703888E+02  0.11309708861E+03  0.13553619325E+03  0.00000000000E+00 0.  1.
         14    1    3    3    0    0 -0.84836722251E+02 -0.23464302870E+02  0.12093845773E+03  0.14957925494E+03  0.00000000000E+00 0. -1.
          5    1    4    4  503    0  0.18290339448E+03 -0.97892607813E+02 -0.15035831631E+03  0.25625441979E+03  0.47000000000E+01 0.  1.
         -5    1    4    4    0  503  0.63821985183E+02 -0.13825983661E+03 -0.58962134868E+02  0.16336355640E+03  0.47000000000E+01 0.  1.
         -2    1    1    2    0  501 -0.23202466965E+02 -0.40409939624E+02 -0.68659449302E+03  0.68817389920E+03  0.00000000000E+00 0.  1.
         -4    1    1    2    0  502 -0.19411793185E+03  0.27262945963E+03  0.57407210846E+03  0.66450536449E+03  0.00000000000E+00 0.  1.
<mgrwt>
<rscale>  0 0.10383022E+03</rscale>
<asrwt>0</asrwt>
<pdfrwt beam="2">  1       -1 0.17509869E+00 0.46597400E+02</pdfrwt>
<pdfrwt beam="1">  1       -3 0.15159246E+00 0.23135870E+03</pdfrwt>
<totfact> 0.43112858E-01</totfact>
</mgrwt>
</event>
<event>
13    1  0.2101801E-008  0.1722337E+03  0.7546771E-02  0.1238411E+00
          2   -1    0    0  503    0  0.00000000000E+00  0.00000000000E+00  0.83740532403E+03  0.83740532403E+03  0.00000000000E+00 0. -1.
          2   -1    0    0  502    0 -0.00000000000E+00 -0.00000000000E+00 -0.32771093878E+04  0.32771093878E+04  0.00000000000E+00 0. -1.
         24    2    1    2    0    0  0.12944576721E+03  0.10491162160E+01 -0.24352613864E+03  0.28601853450E+03  0.75791256667E+02 0.  0.
         25    2    1    2    0    0 -0.29434114229E+02  0.82850622554E+02 -0.15262995631E+04  0.15339316961E+04  0.12500199690E+03 0.  0.
         24    2    1    2    0    0 -0.66626438883E+02  0.10258216309E+03  0.56572929633E+03  0.58443146289E+03  0.80921663017E+02 0.  0.
        -11    1    5    5    0    0 -0.10743104409E+02 -0.53161846573E+01  0.17107493469E+03  0.17149434216E+03  0.00000000000E+00 0.  1.
         12    1    5    5    0    0 -0.55883334474E+02  0.10789834775E+03  0.39465436163E+03  0.41293712073E+03  0.00000000000E+00 0. -1.
        -13    1    3    3    0    0  0.11441323992E+03  0.59168310580E+00 -0.13725629079E+03  0.17868975606E+03  0.00000000000E+00 0.  1.
         14    1    3    3    0    0  0.15032527289E+02  0.45743311015E+00 -0.10626984785E+03  0.10732877845E+03  0.00000000000E+00 0. -1.
          5    1    4    4  501    0 -0.25975684641E+02  0.11599867297E+03 -0.12215029294E+04  0.12272823330E+04  0.47000000000E+01 0.  1.
         -5    1    4    4    0  501 -0.34584295889E+01 -0.33148050415E+02 -0.30479663372E+03  0.30664936314E+03  0.47000000000E+01 0.  1.
          1    1    1    2  502    0  0.86329019297E+02  0.15314465109E+02 -0.14131688546E+04  0.14158860986E+04  0.00000000000E+00 0. -1.
          1    1    1    2  503    0 -0.11971423339E+03 -0.20179636697E+03  0.17756119625E+03  0.29424691980E+03  0.00000000000E+00 0. -1.
<mgrwt>
<rscale>  0 0.12288577E+03</rscale>
<asrwt>0</asrwt>
<pdfrwt beam="1">  1        2 0.12314784E+00 0.17223373E+03</pdfrwt>
<pdfrwt beam="2">  1        2 0.48192785E+00 0.87676864E+02</pdfrwt>
<totfact> 0.11730625E+01</totfact>
</mgrwt>
</event>
<event>
13    1  0.2101801E-008  0.2984477E+02  0.7546771E-02  0.1615455E+00
          2   -1    0    0  502    0  0.00000000000E+00  0.00000000000E+00  0.13525997914E+04  0.13525997914E+04  0.00000000000E+00 0. -1.
          2   -1    0    0  503    0 -0.00000000000E+00 -0.00000000000E+00 -0.10061463860E+04  0.10061463860E+04  0.00000000000E+00 0. -1.
         24    2    1    2    0    0 -0.28330709523E+03  0.29327219005E+03 -0.19783415112E+03  0.46149922922E+03  0.87015513305E+02 0.  0.
         25    2    1    2    0    0  0.22963953301E+03 -0.33111935815E+03  0.32133909111E+03  0.53033815765E+03  0.12500162205E+03 0.  0.
         24    2    1    2    0    0  0.35545718091E+02  0.91097234123E+01 -0.46439694034E+02  0.99289512465E+02  0.79719991020E+02 0.  0.
        -11    1    3    3    0    0 -0.18323926705E+03  0.13437825545E+03 -0.86128878889E+02  0.24300684827E+03  0.00000000000E+00 0.  1.
         12    1    3    3    0    0 -0.10006782818E+03  0.15889393460E+03 -0.11170527223E+03  0.21849238095E+03  0.00000000000E+00 0. -1.
        -13    1    5    5    0    0  0.47524176818E+02 -0.21034681128E+02 -0.14943510789E+02  0.54076923980E+02  0.00000000000E+00 0.  1.
         14    1    5    5    0    0 -0.11978458727E+02  0.30144404540E+02 -0.31496183244E+02  0.45212588485E+02  0.00000000000E+00 0. -1.
          5    1    4    4  501    0  0.81983259020E+02 -0.18463498050E+03  0.96232419206E+02  0.22381711125E+03  0.47000000000E+01 0.  1.
         -5    1    4    4    0  501  0.14765627399E+03 -0.14648437765E+03  0.22510667191E+03  0.30652104639E+03  0.47000000000E+01 0.  1.
          1    1    1    2  502    0  0.29569695332E+02  0.40761794137E+01  0.76784325000E+03  0.76842321587E+03  0.00000000000E+00 0. -1.
          1    1    1    2  503    0 -0.11447851203E+02  0.24661265275E+02 -0.49845509051E+03  0.49919606224E+03  0.00000000000E+00 0. -1.
<mgrwt>
<rscale>  0 0.28485851E+02</rscale>
<asrwt>0</asrwt>
<pdfrwt beam="1">  1        2 0.19891173E+00 0.29844770E+02</pdfrwt>
<pdfrwt beam="2">  1        2 0.14796270E+00 0.27188808E+02</pdfrwt>
<totfact> 0.10042267E+02</totfact>
</mgrwt>
</event>
<event>
13    1  0.2101801E-008  0.3811313E+02  0.7546771E-02  0.1567281E+00
          2   -1    0    0  502    0  0.00000000000E+00  0.00000000000E+00  0.63081973134E+03  0.63081973134E+03  0.00000000000E+00 0. -1.
          2   -1    0    0  503    0 -0.00000000000E+00 -0.00000000000E+00 -0.28510380553E+04  0.28510380553E+04  0.00000000000E+00 0. -1.
         24    2    1    2    0    0 -0.15878318526E+02  0.15928469897E+02 -0.18983677086E+04  0.19005523950E+04  0.88281434842E+02 0.  0.
         25    2    1    2    0    0  0.21713513769E+02  0.72769935783E+02 -0.47517135189E+02  0.15378620456E+03  0.12500151336E+03 0.  0.
         24    2    1    2    0    0  0.34823384145E+02 -0.10535510627E+03 -0.32752017804E+03  0.35408033430E+03  0.76098946198E+02 0.  0.
        -11    1    3    3    0    0  0.27637744464E+01  0.29503697113E+02 -0.21562404744E+03  0.21765072117E+03  0.00000000000E+00 0.  1.
         12    1    3    3    0    0 -0.18642092973E+02 -0.13575227216E+02 -0.16827436612E+04  0.16829016738E+04  0.00000000000E+00 0. -1.
        -13    1    5    5    0    0  0.35507547662E+02 -0.49866290705E+02 -0.81788389367E+02  0.10216052821E+03  0.00000000000E+00 0.  1.
         14    1    5    5    0    0 -0.68416351764E+00 -0.55488815560E+02 -0.24573178868E+03  0.25191980609E+03  0.00000000000E+00 0. -1.
          5    1    4    4  501    0  0.17310667526E+01 -0.15833585210E+02 -0.59751747478E+02  0.62016613415E+02  0.47000000000E+01 0.  1.
         -5    1    4    4    0  501  0.19982447017E+02  0.88603520993E+02  0.12234612289E+02  0.91769591145E+02  0.47000000000E+01 0.  1.
          1    1    1    2  502    0 -0.42935530652E+01  0.28218148021E+02  0.56223665449E+03  0.56296070389E+03  0.00000000000E+00 0. -1.
          1    1    1    2  503    0 -0.36365026322E+02 -0.11561447436E+02 -0.50904995664E+03  0.51047814896E+03  0.00000000000E+00 0. -1.
<mgrwt>
<rscale>  0 0.32982723E+02</rscale>
<asrwt>0</asrwt>
<pdfrwt beam="1">  1        2 0.92767608E-01 0.28542923E+02</pdfrwt>
<pdfrwt beam="2">  1        2 0.41927030E+00 0.38113125E+02</pdfrwt>
<totfact> 0.33099113E+01</totfact>
</mgrwt>
</event>
<event>
13    1  0.2101801E-008  0.1310640E+03  0.7546771E-02  0.1416489E+00
          2   -1    0    0  503    0  0.00000000000E+00  0.00000000000E+00  0.76441250397E+03  0.76441250397E+03  0.00000000000E+00 0. -1.
          2   -1    0    0  502    0 -0.00000000000E+00 -0.00000000000E+00 -0.37290738816E+04  0.37290738816E+04  0.00000000000E+00 0. -1.
         24    2    1    2    0    0 -0.81763828286E+02  0.57985832745E+02 -0.40521038597E+03  0.42535386134E+03  0.81748211256E+02 0.  0.
         25    2    1    2    0    0 -0.78430900735E+01 -0.16157672310E+03  0.21039272932E+02  0.20551356992E+03  0.12499849962E+03 0.  0.
         24    2    1    2    0    0 -0.45059260719E+02 -0.42211721812E+02 -0.69855400811E+03  0.70600998122E+03  0.81610200982E+02 0.  0.
        -11    1    5    5    0    0 -0.59876415800E+02 -0.79519047477E+01 -0.32247527362E+03  0.32808340411E+03  0.00000000000E+00 0.  1.
         12    1    5    5    0    0  0.14817155081E+02 -0.34259817064E+02 -0.37607873449E+03  0.37792657711E+03  0.00000000000E+00 0. -1.
        -13    1    3    3    0    0 -0.47627681995E+02  0.76788169038E+02 -0.28011451228E+03  0.29432797860E+03  0.00000000000E+00 0.  1.
         14    1    3    3    0    0 -0.34136146291E+02 -0.18802336293E+02 -0.12509587369E+03  0.13102588274E+03  0.00000000000E+00 0. -1.
          5    1    4    4  501    0  0.17692492794E+02 -0.16200989274E+03  0.46091775575E+02  0.16943072750E+03  0.47000000000E+01 0. -1.
         -5    1    4    4    0  501 -0.25535582868E+02  0.43316964206E+00 -0.25052502643E+02  0.36082842418E+02  0.47000000000E+01 0. -1.
          1    1    1    2  502    0  0.15586486873E+03  0.15647052091E+03 -0.25142092078E+04  0.25238908102E+04  0.00000000000E+00 0. -1.
          1    1    1    2  503    0 -0.21198689653E+02 -0.10667908743E+02  0.63227295130E+03  0.63271816291E+03  0.00000000000E+00 0. -1.
<mgrwt>
<rscale>  0 0.55770592E+02</rscale>
<asrwt>0</asrwt>
<pdfrwt beam="1">  1        2 0.11241361E+00 0.23731598E+02</pdfrwt>
<pdfrwt beam="2">  1        2 0.54839321E+00 0.13106403E+03</pdfrwt>
<totfact> 0.70384567E+00</totfact>
</mgrwt>
</event>
<event>
13    1  0.2101801E-008  0.1126339E+03  0.7546771E-02  0.1383234E+00
          2   -1    0    0  502    0  0.00000000000E+00  0.00000000000E+00  0.15071831226E+04  0.15071831226E+04  0.00000000000E+00 0. -1.
          2   -1    0    0  503    0 -0.00000000000E+00 -0.00000000000E+00 -0.85822385641E+03  0.85822385641E+03  0.00000000000E+00 0. -1.
         24    2    1    2    0    0 -0.46457711295E+03  0.23679579489E+03 -0.32879519335E+03  0.61960059290E+03  0.62405714527E+02 0.  0.
         25    2    1    2    0    0 -0.43181478263E+02  0.12044403047E+03 -0.18636580508E+02  0.17984324605E+03  0.12499946590E+03 0.  0.
         24    2    1    2    0    0  0.38890602447E+03 -0.41617594705E+03  0.46342625523E+03  0.73875314085E+03  0.80882595806E+02 0.  0.
        -11    1    5    5    0    0  0.28266445178E+03 -0.26201045046E+03  0.27778779204E+03  0.47509443888E+03  0.00000000000E+00 0.  1.
         12    1    5    5    0    0  0.10624157269E+03 -0.15416549659E+03  0.18563846319E+03  0.26365870197E+03  0.00000000000E+00 0. -1.
        -13    1    3    3    0    0 -0.18522997716E+03  0.61145690497E+02 -0.11570669932E+03  0.22679722259E+03  0.00000000000E+00 0.  1.
         14    1    3    3    0    0 -0.27934713579E+03  0.17565010439E+03 -0.21308849403E+03  0.39280337032E+03  0.00000000000E+00 0. -1.
          5    1    4    4  501    0 -0.67814063166E+02  0.17356362992E+02  0.75578826598E+01  0.70563461435E+02  0.47000000000E+01 0. -1.
         -5    1    4    4    0  501  0.24632584903E+02  0.10308766748E+03 -0.26194463167E+02  0.10927978462E+03  0.47000000000E+01 0. -1.
          1    1    1    2  502    0  0.10991047502E+03  0.24129883919E+02  0.67315063711E+03  0.68249127765E+03  0.00000000000E+00 0. -1.
          1    1    1    2  503    0  0.89420917277E+01  0.34806237770E+02 -0.14018585229E+03  0.14471872158E+03  0.00000000000E+00 0. -1.
<mgrwt>
<rscale>  0 0.63621337E+02</rscale>
<asrwt>0</asrwt>
<pdfrwt beam="1">  1        2 0.22164458E+00 0.11263394E+03</pdfrwt>
<pdfrwt beam="2">  1        2 0.12620939E+00 0.35936544E+02</pdfrwt>
<totfact> 0.91149317E+01</totfact>
</mgrwt>
</event>
<event>
13    1  0.2101801E-008  0.8708158E+02  0.7546771E-02  0.1459790E+00
          2   -1    0    0  502    0  0.00000000000E+00  0.00000000000E+00  0.16662316906E+04  0.16662316906E+04  0.00000000000E+00 0. -1.
          4   -1    0    0  503    0 -0.00000000000E+00 -0.00000000000E+00 -0.12208424127E+04  0.12208424127E+04  0.00000000000E+00 0. -1.
         24    2    1    2    0    0 -0.52067679254E+02  0.32085194218E+02 -0.17403926188E+03  0.20110650855E+03  0.80085330708E+02 0.  0.
         25    2    1    2    0    0 -0.15263722864E+03 -0.35097016604E+02 -0.22269824868E+02  0.20162494721E+03  0.12500700018E+03 0.  0.
         24    2    1    2    0    0  0.25566666449E+03 -0.41481148558E+02 -0.85369573548E+03  0.89447929077E+03  0.64889628027E+02 0.  0.
        -11    1    3    3    0    0 -0.61518286243E+02  0.44742561590E+02 -0.10135196846E+03  0.12672260205E+03  0.00000000000E+00 0.  1.
         12    1    3    3    0    0  0.94506069897E+01 -0.12657367371E+02 -0.72687293421E+02  0.74383906499E+02  0.00000000000E+00 0. -1.
        -13    1    5    5    0    0  0.14493294454E+03 -0.52638101609E+01 -0.56113706975E+03  0.57957577344E+03  0.00000000000E+00 0.  1.
         14    1    5    5    0    0  0.11073371995E+03 -0.36217338397E+02 -0.29255866574E+03  0.31490351734E+03  0.00000000000E+00 0. -1.
          5    1    4    4  501    0  0.36377270735E+00 -0.46600235696E+02 -0.70858752466E+01  0.47371024113E+02  0.47000000000E+01 0.  1.
         -5    1    4    4    0  501 -0.15300100135E+03  0.11503219093E+02 -0.15183949622E+02  0.15425392309E+03  0.47000000000E+01 0.  1.
          1    1    1    2  502    0 -0.76602919083E+02  0.41461439252E+02  0.15377732893E+04  0.15402382112E+04  0.00000000000E+00 0. -1.
          3    1    1    2  503    0  0.25641162492E+02  0.30315316908E+01 -0.42379189122E+02  0.49625145531E+02  0.00000000000E+00 0. -1.
<mgrwt>
<rscale>  0 0.47417554E+02</rscale>
<asrwt>0</asrwt>
<pdfrwt beam="1">  1        2 0.24503407E+00 0.87081580E+02</pdfrwt>
<pdfrwt beam="2">  1        4 0.17953565E+00 0.25819748E+02</pdfrwt>
<totfact> 0.13594464E+00</totfact>
</mgrwt>
</event>
<event>
13    1  0.2101801E-008  0.1312545E+03  0.7546771E-02  0.1334435E+00
          2   -1    0    0  502    0  0.00000000000E+00  0.00000000000E+00  0.87575326384E+03  0.87575326384E+03  0.00000000000E+00 0. -1.
          2   -1    0    0  503    0 -0.00000000000E+00 -0.00000000000E+00 -0.25440542342E+04  0.25440542342E+04  0.00000000000E+00 0. -1.
         24    2    1    2    0    0  0.53546732614E+01 -0.14610483165E+03  0.97701959970E+02  0.19348568985E+03  0.80720163761E+02 0.  0.
         25    2    1    2    0    0 -0.17920588895E+03  0.20428775520E+03 -0.57226467559E+03  0.64572337501E+03  0.12499432205E+03 0.  0.
         24    2    1    2    0    0  0.49519696802E+02 -0.29019538521E+02  0.87797369743E+02  0.13343849383E+03  0.82481025176E+02 0.  0.
        -11    1    5    5    0    0  0.24550783913E+02 -0.21136724481E+02  0.99586403160E+02  0.10472322477E+03  0.00000000000E+00 0.  1.
         12    1    5    5    0    0  0.24968912889E+02 -0.78828140393E+01 -0.11789033417E+02  0.28715269055E+02  0.00000000000E+00 0. -1.
        -13    1    3    3    0    0  0.96541863208E+01 -0.14509139604E+03  0.10875480023E+03  0.18158282708E+03  0.00000000000E+00 0.  1.
         14    1    3    3    0    0 -0.42995130594E+01 -0.10134356067E+01 -0.11052840257E+02  0.11902862766E+02  0.00000000000E+00 0. -1.
          5    1    4    4  501    0 -0.33226810840E+02 -0.33264923716E+01 -0.14387574441E+03  0.14777485016E+03  0.47000000000E+01 0.  1.
         -5    1    4    4    0  501 -0.14597907811E+03  0.20761424757E+03 -0.42838893118E+03  0.49794852485E+03  0.47000000000E+01 0.  1.
          1    1    1    2  502    0  0.13346925519E+03  0.16440789884E+02  0.57475962291E+03  0.59028210694E+03  0.00000000000E+00 0. -1.
          1    1    1    2  503    0 -0.91377363095E+01 -0.45604174920E+02 -0.18562952474E+04  0.18568778324E+04  0.00000000000E+00 0. -1.
<mgrwt>
<rscale>  0 0.78132757E+02</rscale>
<asrwt>0</asrwt>
<pdfrwt beam="1">  1        2 0.12878725E+00 0.13125445E+03</pdfrwt>
<pdfrwt beam="2">  1        2 0.37412562E+00 0.46510633E+02</pdfrwt>
<totfact> 0.29641566E+01</totfact>
</mgrwt>
</event>
<event>
13    1  0.2101801E-008  0.9304710E+02  0.7546771E-02  0.1454426E+00
          2   -1    0    0  503    0  0.00000000000E+00  0.00000000000E+00  0.46567722356E+03  0.46567722356E+03  0.00000000000E+00 0. -1.
          2   -1    0    0  502    0 -0.00000000000E+00 -0.00000000000E+00 -0.27579581173E+04  0.27579581173E+04  0.00000000000E+00 0. -1.
         24    2    1    2    0    0 -0.52257443489E+02 -0.83735145130E+02 -0.52308575472E+03  0.53802980949E+03  0.78198172463E+02 0.  0.
         25    2    1    2    0    0  0.11419047276E+03 -0.21563066794E+02 -0.88074923626E+02  0.19204199539E+03  0.12497402092E+03 0.  0.
         24    2    1    2    0    0  0.29516850007E+02  0.58098421385E+02 -0.21305773358E+03  0.23670954961E+03  0.79944618559E+02 0.  0.
        -11    1    5    5    0    0 -0.18014903739E+02  0.51596728352E+02 -0.12516908086E+03  0.13657985919E+03  0.00000000000E+00 0.  1.
         12    1    5    5    0    0  0.47531753746E+02  0.65016930333E+01 -0.87888652718E+02  0.10012969042E+03  0.00000000000E+00 0. -1.
        -13    1    3    3    0    0 -0.21238766557E+02 -0.65272451896E+02 -0.46203375268E+03  0.46710466365E+03  0.00000000000E+00 0.  1.
         14    1    3    3    0    0 -0.31018676931E+02 -0.18462693234E+02 -0.61052002039E+02  0.70925145844E+02  0.00000000000E+00 0. -1.
          5    1    4    4  501    0  0.12557085749E+03  0.16116500714E+01 -0.10243400145E+03  0.16212788878E+03  0.47000000000E+01 0.  1.
         -5    1    4    4    0  501 -0.11380384737E+02 -0.23174716866E+02  0.14359077820E+02  0.29914106612E+02  0.47000000000E+01 0.  1.
          1    1    1    2  502    0 -0.11086158129E+01  0.25103998373E+02 -0.18568891187E+04  0.18570591372E+04  0.00000000000E+00 0. -1.
          1    1    1    2  503    0 -0.90341263462E+02  0.22095792166E+02  0.38882663688E+03  0.39979484922E+03  0.00000000000E+00 0. -1.
<mgrwt>
<rscale>  0 0.48354223E+02</rscale>
<asrwt>0</asrwt>
<pdfrwt beam="1">  1        2 0.68481947E-01 0.93047102E+02</pdfrwt>
<pdfrwt beam="2">  1        2 0.40558206E+00 0.25128465E+02</pdfrwt>
<totfact> 0.53546825E+01</totfact>
</mgrwt>
</event>
<event>
13    1  0.2101801E-008  0.5126557E+02  0.7546771E-02  0.1511158E+00
          2   -1    0    0  503    0  0.00000000000E+00  0.00000000000E+00  0.15163174593E+04  0.15163174593E+04  0.00000000000E+00 0. -1.
          2   -1    0    0  502    0 -0.00000000000E+00 -0.00000000000E+00 -0.58092276464E+03  0.58092276464E+03  0.00000000000E+00 0. -1.
         24    2    1    2    0    0  0.86506461141E+02  0.63997576282E+02 -0.40671953972E+03  0.42856594853E+03  0.81663520982E+02 0.  0.
         25    2    1    2    0    0 -0.15226845430E+03 -0.15928647381E+03  0.52222577997E+03  0.58043255154E+03  0.12499727483E+03 0.  0.
         24    2    1    2    0    0  0.44418565882E+02  0.16339710983E+02  0.17488983614E+01  0.91836425161E+02  0.78682114809E+02 0.  0.
        -11    1    5    5    0    0 -0.11234745542E+02 -0.21357423181E+02  0.45587685816E+01  0.24558937341E+02  0.00000000000E+00 0.  1.
         12    1    5    5    0    0  0.55653311424E+02  0.37697134164E+02 -0.28098702202E+01  0.67277487820E+02  0.00000000000E+00 0. -1.
        -13    1    3    3    0    0  0.67758387713E+02  0.33298681167E+02 -0.13671763338E+03  0.15617846379E+03  0.00000000000E+00 0.  1.
         14    1    3    3    0    0  0.18748073428E+02  0.30698895116E+02 -0.27000190633E+03  0.27238748474E+03  0.00000000000E+00 0. -1.
          5    1    4    4  501    0 -0.70374240508E+02  0.29245519182E+01  0.16985730510E+03  0.18394205834E+03  0.47000000000E+01 0.  1.
         -5    1    4    4    0  501 -0.81894213795E+02 -0.16221102572E+03  0.35236847487E+03  0.39649049320E+03  0.47000000000E+01 0.  1.
          1    1    1    2  502    0  0.90114973943E+01  0.29235266803E+02 -0.85761270087E+02  0.91054397792E+02  0.00000000000E+00 0. -1.
          1    1    1    2  503    0  0.12331929885E+02  0.49713919737E+02  0.90390082613E+03  0.90535090091E+03  0.00000000000E+00 0. -1.
<mgrwt>
<rscale>  0 0.39602370E+02</rscale>
<asrwt>0</asrwt>
<pdfrwt beam="1">  1        2 0.22298786E+00 0.51265570E+02</pdfrwt>
<pdfrwt beam="2">  1        2 0.85429818E-01 0.30592612E+02</pdfrwt>
<totfact> 0.14830217E+02</totfact>
</mgrwt>
</event>
<event>
13    1  0.2101801E-008  0.9502222E+02  0.7546771E-02  0.1309900E+00
          2   -1    0    0  503    0  0.00000000000E+00  0.00000000000E+00  0.27571232035E+04  0.27571232035E+04  0.00000000000E+00 0. -1.
         -1   -1    0    0    0  501 -0.00000000000E+00 -0.00000000000E+00 -0.18542980561E+04  0.18542980561E+04  0.00000000000E+00 0.  1.
         24    2    1    2    0    0 -0.31262803325E+01 -0.51965254840E+02 -0.13420046343E+03  0.16437214093E+03  0.79361672053E+02 0.  0.
         25    2    1    2    0    0  0.45467401277E+02  0.43616168703E+02  0.14993028178E+03  0.20511841744E+03  0.12499928411E+03 0.  0.
         24    2    1    2    0    0 -0.22072618878E+02  0.59489672496E+02  0.48030605069E+03  0.49079424831E+03  0.78478469684E+02 0.  0.
        -11    1    5    5    0    0  0.29333092227E+02  0.25993506920E+02  0.20815503950E+03  0.21181268416E+03  0.00000000000E+00 0.  1.
         12    1    5    5    0    0 -0.51405711104E+02  0.33496165576E+02  0.27215101119E+03  0.27898156415E+03  0.00000000000E+00 0. -1.
        -11    1    3    3    0    0  0.23215150617E+02 -0.51079101628E+02 -0.12401415643E+03  0.13611586548E+03  0.00000000000E+00 0.  1.
         12    1    3    3    0    0 -0.26341430950E+02 -0.88615321223E+00 -0.10186306999E+02  0.28256275450E+02  0.00000000000E+00 0. -1.
          5    1    4    4  502    0  0.19313857077E+02 -0.11172210733E+02 -0.16337689618E+02  0.28050908540E+02  0.47000000000E+01 0. -1.
         -5    1    4    4    0  502  0.26153544201E+02  0.54788379436E+02  0.16626797140E+03  0.17706750890E+03  0.47000000000E+01 0. -1.
          1    1    1    2  503    0  0.55038327656E+02 -0.77937781850E+02  0.20769117926E+04  0.20791022364E+04  0.00000000000E+00 0. -1.
         -2    1    1    2    0  501 -0.75306829723E+02  0.26797195491E+02 -0.16701225143E+04  0.16720342165E+04  0.00000000000E+00 0.  1.
<mgrwt>
<rscale>  0 0.87151398E+02</rscale>
<asrwt>0</asrwt>
<pdfrwt beam="1">  1        2 0.40545930E+00 0.95022224E+02</pdfrwt>
<pdfrwt beam="2">  1       -1 0.27269089E+00 0.79932523E+02</pdfrwt>
<totfact> 0.29605699E-01</totfact>
</mgrwt>
</event>
<event>
13    1  0.2101801E-008  0.4943374E+02  0.7546771E-02  0.1483782E+00
          2   -1    0    0  502    0  0.00000000000E+00  0.00000000000E+00  0.33754321297E+04  0.33754321297E+04  0.00000000000E+00 0. -1.
          2   -1    0    0  503    0 -0.00000000000E+00 -0.00000000000E+00 -0.79508356784E+03  0.79508356784E+03  0.00000000000E+00 0. -1.
         24    2    1    2    0    0 -0.39915076229E+03 -0.25448778716E+03 -0.12110520065E+03  0.49531069728E+03  0.81122452957E+02 0.  0.
         25    2    1    2    0    0  0.37024940107E+03  0.11838555461E+03  0.52725233372E+03  0.66687365991E+03  0.12500278533E+03 0.  0.
         24    2    1    2    0    0  0.68394069200E+02  0.66426487470E+02  0.96085883145E+03  0.97015912776E+03  0.94174371553E+02 0.  0.
        -11    1    3    3    0    0 -0.32967327756E+03 -0.18578528688E+03 -0.69281293200E+02  0.38470838352E+03  0.00000000000E+00 0.  1.
         12    1    3    3    0    0 -0.69477484725E+02 -0.68702500276E+02 -0.51823907445E+02  0.11060231377E+03  0.00000000000E+00 0. -1.
        -11    1    5    5    0    0  0.88529206142E+02  0.32860711345E+02  0.64228414219E+03  0.64918885234E+03  0.00000000000E+00 0.  1.
         12    1    5    5    0    0 -0.20135136942E+02  0.33565776125E+02  0.31857468926E+03  0.32097027542E+03  0.00000000000E+00 0. -1.
          5    1    4    4  501    0  0.10654079378E+03  0.90924381529E+02  0.22190268084E+03  0.26245204069E+03  0.47000000000E+01 0.  1.
         -5    1    4    4    0  501  0.26370860729E+03  0.27461173084E+02  0.30534965288E+03  0.40442161923E+03  0.47000000000E+01 0.  1.
          1    1    1    2  502    0 -0.13242558119E+01  0.38295093332E+02  0.16240505568E+04  0.16245025327E+04  0.00000000000E+00 0. -1.
          1    1    1    2  503    0 -0.38168452176E+02  0.31380651743E+02 -0.41070795947E+03  0.41366967984E+03  0.00000000000E+00 0. -1.
<mgrwt>
<rscale>  0 0.43522424E+02</rscale>
<asrwt>0</asrwt>
<pdfrwt beam="1">  1        2 0.49638707E+00 0.38317983E+02</pdfrwt>
<pdfrwt beam="2">  1        2 0.11692406E+00 0.49433744E+02</pdfrwt>
<totfact> 0.13425480E+01</totfact>
</mgrwt>
</event>
<event>
13    1  0.2101801E-008  0.7032420E+02  0.7546771E-02  0.1446231E+00
          2   -1    0    0  503    0  0.00000000000E+00  0.00000000000E+00  0.20066735831E+04  0.20066735831E+04  0.00000000000E+00 0. -1.
          2   -1    0    0  502    0 -0.00000000000E+00 -0.00000000000E+00 -0.16517199709E+04  0.16517199709E+04  0.00000000000E+00 0. -1.
         24    2    1    2    0    0  0.42468575535E+03 -0.34991169485E+03  0.23162954351E+03  0.60251434963E+03  0.81087058706E+02 0.  0.
         25    2    1    2    0    0 -0.73521299965E+03  0.88788580520E+02  0.23495274891E+03  0.78691924346E+03  0.12497013494E+03 0.  0.
         24    2    1    2    0    0  0.27421159465E+03  0.27417557364E+03  0.79588219925E+03  0.88994943637E+03  0.90649216176E+02 0.  0.
        -11    1    5    5    0    0  0.86365900312E+02  0.49068612531E+02  0.14144874083E+03  0.17284254035E+03  0.00000000000E+00 0.  1.
         12    1    5    5    0    0  0.18784569434E+03  0.22510696111E+03  0.65443345842E+03  0.71710689602E+03  0.00000000000E+00 0. -1.
        -11    1    3    3    0    0  0.22184421040E+03 -0.17791896804E+03  0.75906514638E+02  0.29433282495E+03  0.00000000000E+00 0.  1.
         12    1    3    3    0    0  0.20284154495E+03 -0.17199272681E+03  0.15572302887E+03  0.30818152468E+03  0.00000000000E+00 0. -1.
          5    1    4    4  501    0 -0.25003994448E+03 -0.25396241691E+02  0.99922940382E+02  0.27050254517E+03  0.47000000000E+01 0. -1.
         -5    1    4    4    0  501 -0.48517305516E+03  0.11418482221E+03  0.13502980853E+03  0.51641669829E+03  0.47000000000E+01 0. -1.
          1    1    1    2  502    0  0.70265967590E+02 -0.33262636802E+01 -0.11408486504E+04  0.11430153163E+04  0.00000000000E+00 0. -1.
          1    1    1    2  503    0 -0.33950317941E+02 -0.97261956262E+01  0.23333777089E+03  0.23599520820E+03  0.00000000000E+00 0. -1.
<mgrwt>
<rscale>  0 0.49835455E+02</rscale>
<asrwt>0</asrwt>
<pdfrwt beam="1">  1        2 0.29509906E+00 0.35316044E+02</pdfrwt>
<pdfrwt beam="2">  1        2 0.24289999E+00 0.70324202E+02</pdfrwt>
<totfact> 0.22119189E+01</totfact>
</mgrwt>
</event>
<event>
13    1  0.2101801E-008  0.4239351E+02  0.7546771E-02  0.1549469E+00
          4   -1    0    0  503    0 -0.00000000000E+00  0.00000000000E+00  0.11300419108E+04  0.11300419108E+04  0.00000000000E+00 0. -1.
          2   -1    0    0  502    0  0.00000000000E+00 -0.00000000000E+00 -0.23494770992E+04  0.23494770992E+04  0.00000000000E+00 0. -1.
         24    2    1    2    0    0 -0.64331580550E+01 -0.64045333501E+02 -0.37439130227E+03  0.38802549001E+03  0.79067967077E+02 0.  0.
         25    2    1    2    0    0  0.17381176979E+03 -0.43268584863E+02 -0.37636861382E+03  0.43515679048E+03  0.12500158831E+03 0.  0.
         24    2    1    2    0    0 -0.10385973851E+03  0.13396819131E+03 -0.50875370156E+03  0.54223225636E+03  0.80319172206E+02 0.  0.
        -11    1    3    3    0    0  0.29613708685E+02 -0.56217626915E+02 -0.26769976887E+03  0.27513734674E+03  0.00000000000E+00 0.  1.
         12    1    3    3    0    0 -0.36046866740E+02 -0.78277065862E+01 -0.10669153340E+03  0.11288814327E+03  0.00000000000E+00 0. -1.
        -11    1    5    5    0    0 -0.78091606378E+02  0.12850608179E+03 -0.48104906278E+03  0.50400427860E+03  0.00000000000E+00 0.  1.
         12    1    5    5    0    0 -0.25768132133E+02  0.54621095184E+01 -0.27704638775E+02  0.38227977761E+02  0.00000000000E+00 0. -1.
          5    1    4    4  501    0 -0.11466707386E+02 -0.14908329711E+02 -0.95556306780E+02  0.97503032971E+02  0.47000000000E+01 0.  1.
         -5    1    4    4    0  501  0.18527847717E+03 -0.28360255152E+02 -0.28081230704E+03  0.33765375751E+03  0.47000000000E+01 0.  1.
          1    1    1    2  502    0 -0.34942122079E+02 -0.23643235854E+02 -0.10363921103E+04  0.10372504813E+04  0.00000000000E+00 0. -1.
          3    1    1    2  503    0 -0.28576751141E+02 -0.30110370878E+01  0.10764705397E+04  0.10768539919E+04  0.00000000000E+00 0. -1.
<mgrwt>
<rscale>  0 0.34902366E+02</rscale>
<asrwt>0</asrwt>
<pdfrwt beam="2">  1        2 0.34551133E+00 0.42393508E+02</pdfrwt>
<pdfrwt beam="1">  1        4 0.16618264E+00 0.28734945E+02</pdfrwt>
<totfact> 0.85556218E-01</totfact>
</mgrwt>
</event>
<event>
13    1  0.2101801E-008  0.1400283E+03  0.7546771E-02  0.1262597E+00
          2   -1    0    0  503    0  0.00000000000E+00  0.00000000000E+00  0.12670806249E+04  0.12670806249E+04  0.00000000000E+00 0. -1.
         -1   -1    0    0    0  501 -0.00000000000E+00 -0.00000000000E+00 -0.11516274368E+04  0.11516274368E+04  0.00000000000E+00 0.  1.
         24    2    1    2    0    0 -0.23566200488E+02 -0.49478967192E+02 -0.67507519137E+03  0.68220737863E+03  0.81712052057E+02 0.  0.
         25    2    1    2    0    0  0.15486827925E+03 -0.19459570756E+02  0.40696170363E+03  0.45343040987E+03  0.12497379551E+03 0.  0.
         24    2    1    2    0    0 -0.15333501145E+02 -0.54219698419E+02  0.21955935404E+03  0.23879434485E+03  0.75110167309E+02 0.  0.
        -11    1    5    5    0    0 -0.31050031432E+01  0.17261252034E+02  0.20735670153E+02  0.27158053741E+02  0.00000000000E+00 0.  1.
         12    1    5    5    0    0 -0.12228498002E+02 -0.71480950453E+02  0.19882368389E+03  0.21163629111E+03  0.00000000000E+00 0. -1.
        -13    1    3    3    0    0 -0.38658231589E+02 -0.24877239000E-01 -0.43016665012E+03  0.43190022733E+03  0.00000000000E+00 0.  1.
         14    1    3    3    0    0  0.15092031101E+02 -0.49454089953E+02 -0.24490854125E+03  0.25030715130E+03  0.00000000000E+00 0. -1.
          5    1    4    4  502    0  0.85139058401E+02 -0.69404302319E+02  0.18204979343E+03  0.21267306772E+03  0.47000000000E+01 0. -1.
         -5    1    4    4    0  502  0.69729220851E+02  0.49944731562E+02  0.22491191020E+03  0.24075734215E+03  0.47000000000E+01 0. -1.
          1    1    1    2  503    0  0.63517635676E+02  0.56048254894E+02  0.58006167153E+03  0.58621449973E+03  0.00000000000E+00 0. -1.
         -2    1    1    2    0  501 -0.17948621329E+03  0.67109981473E+02 -0.41605434974E+03  0.45806142854E+03  0.00000000000E+00 0.  1.
<mgrwt>
<rscale>  0 0.10891231E+03</rscale>
<asrwt>0</asrwt>
<pdfrwt beam="1">  1        2 0.18633539E+00 0.84710666E+02</pdfrwt>
<pdfrwt beam="2">  1       -1 0.16935698E+00 0.14002831E+03</pdfrwt>
<totfact> 0.70017044E+00</totfact>
</mgrwt>
</event>
<event>
13    1  0.2101801E-008  0.1506247E+03  0.7546771E-02  0.1400290E+00
          2   -1    0    0  503    0  0.00000000000E+00  0.00000000000E+00  0.13927572372E+04  0.13927572372E+04  0.00000000000E+00 0. -1.
          2   -1    0    0  502    0 -0.00000000000E+00 -0.00000000000E+00 -0.20343941729E+04  0.20343941729E+04  0.00000000000E+00 0. -1.
         24    2    1    2    0    0 -0.47573233565E+02  0.13497554835E+03 -0.62477138846E+03  0.64593703218E+03  0.80085894513E+02 0.  0.
         25    2    1    2    0    0 -0.27224309624E+02  0.27332303947E+02  0.51077675622E+03  0.52726100590E+03  0.12499222284E+03 0.  0.
         24    2    1    2    0    0  0.14781253093E+03 -0.26700489726E+03 -0.44994690566E+03  0.54980752029E+03  0.81828674674E+02 0.  0.
        -11    1    5    5    0    0  0.35437324519E+02 -0.11238062576E+03 -0.22985171031E+03  0.25829637579E+03  0.00000000000E+00 0.  1.
         12    1    5    5    0    0  0.11237520641E+03 -0.15462427150E+03 -0.22009519535E+03  0.29151114450E+03  0.00000000000E+00 0. -1.
        -13    1    3    3    0    0  0.60221854984E+00 -0.63935584565E+01 -0.42638870624E+01  0.77085011383E+01  0.00000000000E+00 0.  1.
         14    1    3    3    0    0 -0.48175452115E+02  0.14136910681E+03 -0.62050750139E+03  0.63822853104E+03  0.00000000000E+00 0. -1.
          5    1    4    4  501    0 -0.41540356964E+02  0.50090158222E+02  0.48612093965E+03  0.49047964603E+03  0.47000000000E+01 0. -1.
         -5    1    4    4    0  501  0.14316047340E+02 -0.22757854275E+02  0.24655816569E+02  0.36781359862E+02  0.47000000000E+01 0. -1.
          1    1    1    2  502    0 -0.76869703439E+02  0.12781696448E+03 -0.88450677809E+03  0.89699407367E+03  0.00000000000E+00 0. -1.
          1    1    1    2  503    0  0.38547156951E+01 -0.23119919519E+02  0.80681138024E+03  0.80715177804E+03  0.00000000000E+00 0. -1.
<mgrwt>
<rscale>  0 0.59418025E+02</rscale>
<asrwt>0</asrwt>
<pdfrwt beam="1">  1        2 0.20481724E+00 0.23439060E+02</pdfrwt>
<pdfrwt beam="2">  1        2 0.29917561E+00 0.15062472E+03</pdfrwt>
<totfact> 0.26653242E+01</totfact>
</mgrwt>
</event>
<event>
13    1  0.2101801E-008  0.3733137E+03  0.7546771E-02  0.1115614E+00
          2   -1    0    0  503    0  0.00000000000E+00  0.00000000000E+00  0.10726666506E+04  0.10726666506E+04  0.00000000000E+00 0. -1.
          2   -1    0    0  502    0 -0.00000000000E+00 -0.00000000000E+00 -0.28690475966E+04  0.28690475966E+04  0.00000000000E+00 0. -1.
         24    2    1    2    0    0 -0.31773077260E+03  0.18666551783E+03 -0.64186503615E+03  0.74444230416E+03  0.80042240027E+02 0.  0.
         25    2    1    2    0    0 -0.53571548475E+03  0.44469645699E+03 -0.64263431601E+03  0.95569982031E+03  0.12504904226E+03 0.  0.
         24    2    1    2    0    0 -0.24318546076E+02 -0.91354554890E+02  0.50986568171E+02  0.13193659092E+03  0.76619759244E+02 0.  0.
        -11    1    3    3    0    0 -0.77191394817E+02  0.85858505969E+02 -0.17467758105E+03  0.20938589208E+03  0.00000000000E+00 0.  1.
         12    1    3    3    0    0 -0.24053937779E+03  0.10080701186E+03 -0.46718745510E+03  0.53505641208E+03  0.00000000000E+00 0. -1.
        -13    1    5    5    0    0  0.19153877141E+02 -0.70053090376E+02  0.23858451922E+02  0.76442999738E+02  0.00000000000E+00 0.  1.
         14    1    5    5    0    0 -0.43472423217E+02 -0.21301464514E+02  0.27128116249E+02  0.55493591180E+02  0.00000000000E+00 0. -1.
          5    1    4    4  501    0 -0.21539978336E+03  0.25258984728E+03 -0.33694191486E+03  0.47302287641E+03  0.47000000000E+01 0.  1.
         -5    1    4    4    0  501 -0.32031570139E+03  0.19210660971E+03 -0.30569240115E+03  0.48267694390E+03  0.47000000000E+01 0.  1.
          1    1    1    2  502    0 -0.16045758857E+03 -0.24533517764E+02 -0.89042313174E+03  0.90509772111E+03  0.00000000000E+00 0. -1.
          1    1    1    2  503    0  0.10382223920E+04 -0.51547390216E+03  0.32755496974E+03  0.12045378106E+04  0.00000000000E+00 0. -1.
<mgrwt>
<rscale>  0 0.24638034E+03</rscale>
<asrwt>0</asrwt>
<pdfrwt beam="1">  1        2 0.15774510E+00 0.37331369E+03</pdfrwt>
<pdfrwt beam="2">  1        2 0.42191876E+00 0.16260661E+03</pdfrwt>
<totfact> 0.12320389E+01</totfact>
</mgrwt>
</event>
<event>
13    1  0.2101801E-008  0.1057131E+03  0.7546771E-02  0.1418884E+00
          2   -1    0    0  503    0  0.00000000000E+00  0.00000000000E+00  0.17971225499E+04  0.17971225499E+04  0.00000000000E+00 0. -1.
          2   -1    0    0  502    0 -0.00000000000E+00 -0.00000000000E+00 -0.37208017964E+04  0.37208017964E+04  0.00000000000E+00 0. -1.
         24    2    1    2    0    0  0.45245610623E+03  0.35517500588E+03 -0.14126334443E+03  0.59679291723E+03  0.73079687365E+02 0.  0.
         25    2    1    2    0    0  0.92423671113E+01  0.20148020608E+03 -0.82616586895E+02  0.25125490252E+03  0.12499532317E+03 0.  0.
         24    2    1    2    0    0 -0.52754139689E+03 -0.60585716083E+03  0.63804672188E+02  0.80999161070E+03  0.81563156138E+02 0.  0.
        -11    1    3    3    0    0  0.10927341552E+03  0.11421735313E+03 -0.14548576922E+02  0.15873860333E+03  0.00000000000E+00 0.  1.
         12    1    3    3    0    0  0.34318269071E+03  0.24095765275E+03 -0.12671476751E+03  0.43805431390E+03  0.00000000000E+00 0. -1.
        -13    1    5    5    0    0 -0.14913986920E+03 -0.14188734435E+03 -0.13584649765E+02  0.20629896214E+03  0.00000000000E+00 0.  1.
         14    1    5    5    0    0 -0.37840152769E+03 -0.46396981648E+03  0.77389321953E+02  0.60369264856E+03  0.00000000000E+00 0. -1.
          5    1    4    4  501    0 -0.35971217062E+01  0.14415466978E+02 -0.60402516841E+02  0.62380277440E+02  0.47000000000E+01 0.  1.
         -5    1    4    4    0  501  0.12839488817E+02  0.18706473910E+03 -0.22214070054E+02  0.18887462508E+03  0.47000000000E+01 0.  1.
          1    1    1    2  502    0  0.72036829686E+02  0.77413935638E+02 -0.28105509592E+04  0.28125395849E+04  0.00000000000E+00 0. -1.
          1    1    1    2  503    0 -0.61939061384E+01 -0.28211986764E+02  0.10469469718E+04  0.10473453310E+04  0.00000000000E+00 0. -1.
<mgrwt>
<rscale>  0 0.55257643E+02</rscale>
<asrwt>0</asrwt>
<pdfrwt beam="1">  1        2 0.26428273E+00 0.28883917E+02</pdfrwt>
<pdfrwt beam="2">  1        2 0.54717673E+00 0.10571305E+03</pdfrwt>
<totfact> 0.22384824E+00</totfact>
</mgrwt>
</event>
<event>
13    1  0.2101801E-008  0.1647642E+03  0.7546771E-02  0.1338143E+00
          2   -1    0    0  502    0  0.00000000000E+00  0.00000000000E+00  0.67559106808E+03  0.67559106808E+03  0.00000000000E+00 0. -1.
          2   -1    0    0  503    0 -0.00000000000E+00 -0.00000000000E+00 -0.10936797694E+04  0.10936797694E+04  0.00000000000E+00 0. -1.
         24    2    1    2    0    0 -0.24735336411E+02 -0.11319887737E+03  0.28199381447E+03  0.31845548287E+03  0.92019348349E+02 0.  0.
         25    2    1    2    0    0 -0.10721092666E+02 -0.11440638740E+02 -0.34393115820E+01  0.12604583272E+03  0.12501957063E+03 0.  0.
         24    2    1    2    0    0 -0.48947337026E+02 -0.56050996044E+02  0.72666574325E+02  0.13196474915E+03  0.81220120875E+02 0.  0.
        -11    1    3    3    0    0  0.25826669556E+02 -0.35153312739E+02  0.15521472508E+03  0.16122773688E+03  0.00000000000E+00 0.  1.
         12    1    3    3    0    0 -0.50562005967E+02 -0.78045564627E+02  0.12677908938E+03  0.15722774599E+03  0.00000000000E+00 0. -1.
        -13    1    5    5    0    0 -0.18674268838E+01  0.16970914969E+02 -0.22773564402E+01  0.17224563577E+02  0.00000000000E+00 0.  1.
         14    1    5    5    0    0 -0.47079910142E+02 -0.73021911014E+02  0.74943930766E+02  0.11474018557E+03  0.00000000000E+00 0. -1.
          5    1    4    4  501    0  0.48404174402E+02  0.43709271802E-01 -0.33016794156E+02  0.58780649080E+02  0.47000000000E+01 0. -1.
         -5    1    4    4    0  501 -0.59125267067E+02 -0.11484348012E+02  0.29577482574E+02  0.67265183642E+02  0.47000000000E+01 0. -1.
          1    1    1    2  502    0  0.49094735796E+02  0.17435039382E+03  0.17260825745E+03  0.25020384380E+03  0.00000000000E+00 0. -1.
          1    1    1    2  503    0  0.35309030307E+02  0.63401183264E+01 -0.94191803600E+03  0.94260092896E+03  0.00000000000E+00 0. -1.
<mgrwt>
<rscale>  0 0.76881113E+02</rscale>
<asrwt>0</asrwt>
<pdfrwt beam="1">  1        2 0.99351629E-01 0.16476416E+03</pdfrwt>
<pdfrwt beam="2">  1        2 0.16083526E+00 0.35873733E+02</pdfrwt>
<totfact> 0.20087576E+02</totfact>
</mgrwt>
</event>
<event>
13    1  0.2101801E-008  0.1854049E+03  0.7546771E-02  0.1240653E+00
         -3   -1    0    0    0  501  0.00000000000E+00  0.00000000000E+00  0.24927451781E+03  0.24927451781E+03  0.00000000000E+00 0.  1.
         -3   -1    0    0    0  502 -0.00000000000E+00 -0.00000000000E+00 -0.12709269615E+04  0.12709269615E+04  0.00000000000E+00 0.  1.
         24    2    1    2    0    0 -0.20021419931E+02 -0.16739924714E+02 -0.88391910424E+02  0.12239244953E+03  0.80533840947E+02 0.  0.
         25    2    1    2    0    0 -0.46575732241E+02  0.17343102071E+02 -0.53291082620E+03  0.54962356068E+03  0.12498811044E+03 0.  0.
         24    2    1    2    0    0 -0.24490528677E+02  0.16092044215E+03 -0.26182210869E+03  0.31851006286E+03  0.80016678569E+02 0.  0.
        -11    1    3    3    0    0 -0.15718260404E+02  0.19396498439E+02 -0.81649904229E+02  0.85381465919E+02  0.00000000000E+00 0.  1.
         12    1    3    3    0    0 -0.43031595268E+01 -0.36136423153E+02 -0.67420061949E+01  0.37010983610E+02  0.00000000000E+00 0. -1.
        -13    1    5    5    0    0  0.19652759128E+01  0.15192570824E+03 -0.23456560833E+03  0.27947505746E+03  0.00000000000E+00 0.  1.
         14    1    5    5    0    0 -0.26455804589E+02  0.89947339116E+01 -0.27256500361E+02  0.39035005399E+02  0.00000000000E+00 0. -1.
          5    1    4    4  503    0  0.37734900415E+02 -0.13977931731E+02 -0.23247117617E+03  0.23597508986E+03  0.47000000000E+01 0. -1.
         -5    1    4    4    0  503 -0.84310632656E+02  0.31321033802E+02 -0.30043965003E+03  0.31364847082E+03  0.47000000000E+01 0. -1.
         -4    1    1    2    0  502  0.74927763454E+02  0.26908947364E+02 -0.28153155162E+03  0.29257183006E+03  0.00000000000E+00 0.  1.
         -4    1    1    2    0  501  0.16159917395E+02 -0.18843256687E+03  0.14300395326E+03  0.23710357617E+03  0.00000000000E+00 0.  1.
<mgrwt>
<rscale>  0 0.12149354E+03</rscale>
<asrwt>0</asrwt>
<pdfrwt beam="1">  1       -3 0.36658017E-01 0.18540493E+03</pdfrwt>
<pdfrwt beam="2">  1       -3 0.18690102E+00 0.79613197E+02</pdfrwt>
<totfact> 0.35497575E+00</totfact>
</mgrwt>
</event>
<event>
13    1  0.2101801E-008  0.5498483E+02  0.7546771E-02  0.1429822E+00
          2   -1    0    0  502    0  0.00000000000E+00  0.00000000000E+00  0.14347240356E+04  0.14347240356E+04  0.00000000000E+00 0. -1.
          2   -1    0    0  503    0 -0.00000000000E+00 -0.00000000000E+00 -0.21292981667E+03  0.21292981667E+03  0.00000000000E+00 0. -1.
         24    2    1    2    0    0 -0.71980262411E+02 -0.27840065968E+02  0.83885646736E+02  0.13885895035E+03  0.79301821632E+02 0.  0.
         25    2    1    2    0    0  0.49152593178E+02 -0.30090916970E+02  0.14610916501E+03  0.20073329984E+03  0.12499811545E+03 0.  0.
         24    2    1    2    0    0 -0.70411336598E+02  0.39465070920E+02  0.43321651944E+03  0.44812773050E+03  0.81404311813E+02 0.  0.
        -13    1    5    5    0    0 -0.24659007817E+02  0.17716665284E+02  0.33495651598E+02  0.45209573889E+02  0.00000000000E+00 0.  1.
         14    1    5    5    0    0 -0.45752328781E+02  0.21748405636E+02  0.39972086784E+03  0.40291815661E+03  0.00000000000E+00 0. -1.
        -13    1    3    3    0    0 -0.38531062346E+02  0.23827895562E+02  0.18145578004E+02  0.48802391063E+02  0.00000000000E+00 0.  1.
         14    1    3    3    0    0 -0.33449200066E+02 -0.51667961530E+02  0.65740068733E+02  0.90056559287E+02  0.00000000000E+00 0. -1.
          5    1    4    4  501    0  0.54215953270E+01 -0.19158536644E+02  0.15346193887E+03  0.15481957209E+03  0.47000000000E+01 0.  1.
         -5    1    4    4    0  501  0.43730997851E+02 -0.10932380327E+02 -0.73527738541E+01  0.45913727751E+02  0.47000000000E+01 0.  1.
          1    1    1    2  502    0  0.52908235492E+02 -0.12878200602E+02  0.70384745984E+03  0.70595068961E+03  0.00000000000E+00 0. -1.
          1    1    1    2  503    0  0.40330770339E+02  0.31344112620E+02 -0.14526457208E+03  0.15398318198E+03  0.00000000000E+00 0. -1.
<mgrwt>
<rscale>  0 0.52995742E+02</rscale>
<asrwt>0</asrwt>
<pdfrwt beam="1">  1        2 0.21098882E+00 0.54984829E+02</pdfrwt>
<pdfrwt beam="2">  1        2 0.31313209E-01 0.51078610E+02</pdfrwt>
<totfact> 0.45176427E+02</totfact>
</mgrwt>
</event>
<event>
13    1  0.2101801E-008  0.3382293E+02  0.7546771E-02  0.1580930E+00
          2   -1    0    0  503    0  0.00000000000E+00  0.00000000000E+00  0.13747813148E+04  0.13747813148E+04  0.00000000000E+00 0. -1.
         -1   -1    0    0    0  501 -0.00000000000E+00 -0.00000000000E+00 -0.14438901084E+04  0.14438901084E+04  0.00000000000E+00 0.  1.
         24    2    1    2    0    0 -0.25711147162E+02  0.48441911970E+03 -0.17883327329E+03  0.52215041650E+03  0.73053207966E+02 0.  0.
         25    2    1    2    0    0 -0.15711870979E+03  0.76437314680E+02  0.11417999216E+03  0.24329374926E+03  0.12500330306E+03 0.  0.
         24    2    1    2    0    0  0.16433783712E+03 -0.61386736091E+03  0.51131461500E+03  0.81943389585E+03  0.78671549229E+02 0.  0.
        -11    1    3    3    0    0 -0.48061978081E+02  0.22903954573E+03 -0.92550980383E+02  0.25166396487E+03  0.00000000000E+00 0.  1.
         12    1    3    3    0    0  0.22350830919E+02  0.25537957398E+03 -0.86282292908E+02  0.27048645163E+03  0.00000000000E+00 0. -1.
        -11    1    5    5    0    0  0.16302085292E+03 -0.51714406308E+03  0.41388376603E+03  0.68213895377E+03  0.00000000000E+00 0.  1.
         12    1    5    5    0    0  0.13169842000E+01 -0.96723297828E+02  0.97430848970E+02  0.13729494208E+03  0.00000000000E+00 0. -1.
          5    1    4    4  502    0  0.13080544629E+02 -0.15225834584E+02  0.17793157424E+02  0.27232574937E+02  0.47000000000E+01 0.  1.
         -5    1    4    4    0  502 -0.17019925442E+03  0.91663149264E+02  0.96386834737E+02  0.21606117432E+03  0.47000000000E+01 0.  1.
          1    1    1    2  503    0 -0.53739545848E+01  0.29051789826E+02  0.35807616429E+03  0.35929295194E+03  0.00000000000E+00 0. -1.
         -2    1    1    2    0  501  0.23865974420E+02  0.23959136699E+02 -0.87384629177E+03  0.87450040972E+03  0.00000000000E+00 0.  1.
<mgrwt>
<rscale>  0 0.31611491E+02</rscale>
<asrwt>0</asrwt>
<pdfrwt beam="1">  1        2 0.20217372E+00 0.29544642E+02</pdfrwt>
<pdfrwt beam="2">  1       -1 0.21233678E+00 0.33822930E+02</pdfrwt>
<totfact> 0.39237935E+00</totfact>
</mgrwt>
</event>
<event>
13    1  0.2101801E-008  0.1097219E+03  0.7546771E-02  0.1383776E+00
          2   -1    0    0  502    0  0.00000000000E+00  0.00000000000E+00  0.21350464897E+04  0.21350464897E+04  0.00000000000E+00 0. -1.
          2   -1    0    0  503    0 -0.00000000000E+00 -0.00000000000E+00 -0.92905613074E+03  0.92905613074E+03  0.00000000000E+00 0. -1.
         24    2    1    2    0    0  0.30008782005E+02 -0.30849625254E+02 -0.85371713885E+02  0.12566578132E+03  0.81555702965E+02 0.  0.
         25    2    1    2    0    0  0.11341789480E+03  0.34967864755E+03  0.38742487988E+03  0.54850795616E+03  0.12499665998E+03 0.  0.
         24    2    1    2    0    0 -0.91065292582E+02 -0.21577133706E+03  0.60665675387E+03  0.65543817633E+03  0.81955039948E+02 0.  0.
        -11    1    3    3    0    0 -0.17283178793E+02 -0.27281369880E+02 -0.54790684194E+01  0.32756703168E+02  0.00000000000E+00 0.  1.
         12    1    3    3    0    0  0.47291960798E+02 -0.35682553745E+01 -0.79892645466E+02  0.92909078147E+02  0.00000000000E+00 0. -1.
        -11    1    5    5    0    0 -0.17118504479E+02 -0.65737350136E+02  0.92541714242E+02  0.11479726161E+03  0.00000000000E+00 0.  1.
         12    1    5    5    0    0 -0.73946788103E+02 -0.15003398692E+03  0.51411503962E+03  0.54064091472E+03  0.00000000000E+00 0. -1.
          5    1    4    4  501    0 -0.26134229135E+02  0.38522921287E+02  0.38513692358E+02  0.60600395180E+02  0.47000000000E+01 0.  1.
         -5    1    4    4    0  501  0.13955212394E+03  0.31115572626E+03  0.34891118752E+03  0.48790756098E+03  0.47000000000E+01 0.  1.
          1    1    1    2  502    0 -0.15943538253E+02 -0.10782433254E+03  0.10124893656E+04  0.10183393337E+04  0.00000000000E+00 0. -1.
          1    1    1    2  503    0 -0.36417845974E+02  0.47666473022E+01 -0.71520892650E+03  0.71615137295E+03  0.00000000000E+00 0. -1.
<mgrwt>
<rscale>  0 0.63481629E+02</rscale>
<asrwt>0</asrwt>
<pdfrwt beam="1">  1        2 0.31397742E+00 0.10972189E+03</pdfrwt>
<pdfrwt beam="2">  1        2 0.13662590E+00 0.36728469E+02</pdfrwt>
<totfact> 0.41076366E+01</totfact>
</mgrwt>
</event>
<event>
13    1  0.2101801E-008  0.1090741E+03  0.7546771E-02  0.1461921E+00
          2   -1    0    0  502    0  0.00000000000E+00  0.00000000000E+00  0.17311066808E+04  0.17311066808E+04  0.00000000000E+00 0. -1.
          2   -1    0    0  503    0 -0.00000000000E+00 -0.00000000000E+00 -0.21114018159E+04  0.21114018159E+04  0.00000000000E+00 0. -1.
         24    2    1    2    0    0  0.30322689276E+02 -0.34443606439E+02 -0.66300084265E+03  0.66931346770E+03  0.79401342467E+02 0.  0.
         25    2    1    2    0    0  0.21251486074E+03  0.29295021747E+02  0.10855461369E+04  0.11135783697E+04  0.12500242322E+03 0.  0.
         24    2    1    2    0    0 -0.85859430836E+02 -0.83858016714E+02 -0.33396901252E+03  0.36401635693E+03  0.81046887425E+02 0.  0.
        -13    1    3    3    0    0 -0.24403567993E+01 -0.49065455516E+02 -0.50017475742E+03  0.50258149810E+03  0.00000000000E+00 0.  1.
         14    1    3    3    0    0  0.32763046075E+02  0.14621849077E+02 -0.16282608523E+03  0.16673196960E+03  0.00000000000E+00 0. -1.
        -13    1    5    5    0    0 -0.70777598402E+02 -0.89303436373E+02 -0.20919761095E+03  0.23821883345E+03  0.00000000000E+00 0.  1.
         14    1    5    5    0    0 -0.15081832433E+02  0.54454196585E+01 -0.12477140157E+03  0.12579752348E+03  0.00000000000E+00 0. -1.
          5    1    4    4  501    0  0.15906208829E+03 -0.33813628153E+02  0.79384790863E+03  0.81034603807E+03  0.47000000000E+01 0. -1.
         -5    1    4    4    0  501  0.53452772450E+02  0.63108649900E+02  0.29169822824E+03  0.30323233161E+03  0.47000000000E+01 0. -1.
          1    1    1    2  502    0 -0.20239359906E+02  0.15348688562E+01  0.60710722763E+03  0.60744643661E+03  0.00000000000E+00 0. -1.
          1    1    1    2  503    0 -0.13673875927E+03  0.87471732550E+02 -0.10759786444E+04  0.10881538657E+04  0.00000000000E+00 0. -1.
<mgrwt>
<rscale>  0 0.47052406E+02</rscale>
<asrwt>0</asrwt>
<pdfrwt beam="1">  1        2 0.25457451E+00 0.20297476E+02</pdfrwt>
<pdfrwt beam="2">  1        2 0.31050027E+00 0.10907410E+03</pdfrwt>
<totfact> 0.18041924E+01</totfact>
</mgrwt>
</event>
<event>
13    1  0.2101801E-008  0.1453530E+03  0.7546771E-02  0.1278865E+00
          2   -1    0    0  502    0  0.00000000000E+00  0.00000000000E+00  0.58379810086E+03  0.58379810086E+03  0.00000000000E+00 0. -1.
          2   -1    0    0  503    0 -0.00000000000E+00 -0.00000000000E+00 -0.21645535200E+04  0.21645535200E+04  0.00000000000E+00 0. -1.
         24    2    1    2    0    0  0.11975861586E+03 -0.65174613105E+02 -0.37388947247E+03  0.40588451268E+03  0.79743612590E+02 0.  0.
         25    2    1    2    0    0 -0.63434468912E+02 -0.10930466346E+03  0.16162725221E+03  0.24024889138E+03  0.12499887941E+03 0.  0.
         24    2    1    2    0    0  0.10310182308E+02  0.58561183673E+02 -0.78507900994E+02  0.12438844679E+03  0.75982123447E+02 0.  0.
        -13    1    5    5    0    0  0.31623913309E+02  0.62034683304E+02 -0.40169112070E+02  0.80386139291E+02  0.00000000000E+00 0.  1.
         14    1    5    5    0    0 -0.21313731001E+02 -0.34734996319E+01 -0.38338788924E+02  0.44002307497E+02  0.00000000000E+00 0. -1.
        -13    1    3    3    0    0  0.32498680708E+02 -0.27495369267E+02 -0.38879266980E+02  0.57652033614E+02  0.00000000000E+00 0.  1.
         14    1    3    3    0    0  0.87259935155E+02 -0.37679243838E+02 -0.33501020549E+03  0.34823247907E+03  0.00000000000E+00 0. -1.
          5    1    4    4  501    0  0.90621139801E+01 -0.61691915773E+02  0.70347511612E+01  0.62925289871E+02  0.47000000000E+01 0. -1.
         -5    1    4    4    0  501 -0.72496582892E+02 -0.47612747682E+02  0.15459250104E+03  0.17732360151E+03  0.47000000000E+01 0. -1.
          1    1    1    2  502    0 -0.27587524428E+01 -0.69687533241E+02  0.33441646410E+03  0.34161137930E+03  0.00000000000E+00 0. -1.
          1    1    1    2  503    0 -0.63875576817E+02  0.18560562613E+03 -0.16244017620E+04  0.16362183907E+04  0.00000000000E+00 0. -1.
<mgrwt>
<rscale>  0 0.10068380E+03</rscale>
<asrwt>0</asrwt>
<pdfrwt beam="1">  1        2 0.85852661E-01 0.69742118E+02</pdfrwt>
<pdfrwt beam="2">  1        2 0.31831670E+00 0.14535301E+03</pdfrwt>
<totfact> 0.64224951E+01</totfact>
</mgrwt>
</event>
<event>
13    1  0.2101801E-008  0.2873821E+03  0.7546771E-02  0.1236086E+00
          2   -1    0    0  503    0  0.00000000000E+00  0.00000000000E+00  0.73793952913E+03  0.73793952913E+03  0.00000000000E+00 0. -1.
          2   -1    0    0  502    0 -0.00000000000E+00 -0.00000000000E+00 -0.36840008338E+04  0.36840008338E+04  0.00000000000E+00 0. -1.
         24    2    1    2    0    0 -0.19781321631E+03 -0.49482308398E+03 -0.13628469525E+04  0.14655148945E+04  0.80013354930E+02 0.  0.
         25    2    1    2    0    0 -0.84735838673E+02  0.45517026124E+03 -0.96291802716E+02  0.48913964583E+03  0.12500141113E+03 0.  0.
         24    2    1    2    0    0  0.42287578564E+02  0.89644376201E+02 -0.14141521623E+03  0.19046673805E+03  0.80342774653E+02 0.  0.
        -11    1    3    3    0    0 -0.12210756791E+03 -0.39210792766E+03 -0.10681714894E+04  0.11443990632E+04  0.00000000000E+00 0.  1.
         12    1    3    3    0    0 -0.75705648404E+02 -0.10271515632E+03 -0.29467546314E+03  0.32111583131E+03  0.00000000000E+00 0. -1.
        -11    1    5    5    0    0  0.45543465215E+02  0.29661948160E+02 -0.10995933302E+03  0.12265844166E+03  0.00000000000E+00 0.  1.
         12    1    5    5    0    0 -0.32558866511E+01  0.59982428041E+02 -0.31455883211E+02  0.67808296396E+02  0.00000000000E+00 0. -1.
          5    1    4    4  501    0 -0.74357792420E+02  0.35459674068E+03 -0.20921158159E+02  0.36294312868E+03  0.47000000000E+01 0.  1.
         -5    1    4    4    0  501 -0.10378046253E+02  0.10057352055E+03 -0.75370644557E+02  0.12619651715E+03  0.47000000000E+01 0.  1.
          1    1    1    2  502    0  0.27373954711E+03 -0.92115784467E+02 -0.17980447229E+04  0.18210940346E+04  0.00000000000E+00 0. -1.
          1    1    1    2  503    0 -0.33478070693E+02  0.42124231014E+02  0.45253738970E+03  0.45572504993E+03  0.00000000000E+00 0. -1.
<mgrwt>
<rscale>  0 0.12435140E+03</rscale>
<asrwt>0</asrwt>
<pdfrwt beam="1">  1        2 0.10852052E+00 0.53807361E+02</pdfrwt>
<pdfrwt beam="2">  1        2 0.54176483E+00 0.28738209E+03</pdfrwt>
<totfact> 0.66433824E+00</totfact>
</mgrwt>
</event>
<event>
13    1  0.2101801E-008  0.1353424E+03  0.7546771E-02  0.1262156E+00
          4   -1    0    0  503    0 -0.00000000000E+00  0.00000000000E+00  0.11512320141E+04  0.11512320141E+04  0.00000000000E+00 0. -1.
          2   -1    0    0  502    0  0.00000000000E+00 -0.00000000000E+00 -0.29114658326E+04  0.29114658326E+04  0.00000000000E+00 0. -1.
         24    2    1    2    0    0  0.44402384046E+02  0.87222879023E+02 -0.20918646501E+03  0.24484062690E+03  0.81293007723E+02 0.  0.
         25    2    1    2    0    0  0.22758964481E+03 -0.14113413031E+03  0.31048135212E+03  0.42864823305E+03  0.12499899409E+03 0.  0.
         24    2    1    2    0    0 -0.31098993746E+01  0.29581060287E+02  0.17959491616E+03  0.19855404093E+03  0.79275864266E+02 0.  0.
        -11    1    3    3    0    0  0.82865961317E+01  0.87795082049E+02 -0.17022863877E+03  0.19171445841E+03  0.00000000000E+00 0.  1.
         12    1    3    3    0    0  0.36115787914E+02 -0.57220302548E+00 -0.38957826238E+02  0.53126168487E+02  0.00000000000E+00 0. -1.
        -13    1    5    5    0    0 -0.25911632723E+02 -0.18087741971E+02  0.60249104474E+02  0.68033327934E+02  0.00000000000E+00 0.  1.
         14    1    5    5    0    0  0.22801733348E+02  0.47668802257E+02  0.11934581169E+03  0.13052071299E+03  0.00000000000E+00 0. -1.
          5    1    4    4  501    0  0.51414619298E+02  0.21135094180E+02  0.52863029652E+02  0.76855352368E+02  0.47000000000E+01 0. -1.
         -5    1    4    4    0  501  0.17617502551E+03 -0.16226922449E+03  0.25761832246E+03  0.35179288068E+03  0.47000000000E+01 0. -1.
          1    1    1    2  502    0 -0.83728057724E+02 -0.27176421255E+02 -0.25990580557E+04  0.26005483503E+04  0.00000000000E+00 0. -1.
          3    1    1    2  503    0 -0.18515407176E+03  0.51506612258E+02  0.55793443399E+03  0.59010659547E+03  0.00000000000E+00 0. -1.
<mgrwt>
<rscale>  0 0.10914802E+03</rscale>
<asrwt>0</asrwt>
<pdfrwt beam="2">  1        2 0.42815674E+00 0.88023316E+02</pdfrwt>
<pdfrwt beam="1">  1        4 0.16929883E+00 0.13534244E+03</pdfrwt>
<totfact> 0.39952273E-01</totfact>
</mgrwt>
</event>
<event>
13    1  0.2101801E-008  0.1082797E+03  0.7546771E-02  0.1429720E+00
          2   -1    0    0  502    0  0.00000000000E+00  0.00000000000E+00  0.15826012375E+04  0.15826012375E+04  0.00000000000E+00 0. -1.
          2   -1    0    0  503    0 -0.00000000000E+00 -0.00000000000E+00 -0.43946001335E+04  0.43946001335E+04  0.00000000000E+00 0. -1.
         24    2    1    2    0    0 -0.15608357462E+03 -0.22458068818E+03 -0.20005778326E+04  0.20207812312E+04  0.80290425207E+02 0.  0.
         25    2    1    2    0    0  0.29234810098E+03  0.14590430718E+03  0.25916716254E+03  0.43539307613E+03  0.12507611123E+03 0.  0.
         24    2    1    2    0    0 -0.34318788876E+02  0.79120743654E+01 -0.15730359675E+03  0.18281144746E+03  0.86227742519E+02 0.  0.
        -11    1    3    3    0    0 -0.88221511691E+02 -0.18854489792E+03 -0.14470637931E+04  0.14619595873E+04  0.00000000000E+00 0.  1.
         12    1    3    3    0    0 -0.67862062928E+02 -0.36035790267E+02 -0.55351403954E+03  0.55882164393E+03  0.00000000000E+00 0. -1.
        -13    1    5    5    0    0  0.28782659160E+02 -0.14195920208E+01 -0.40203987830E+02  0.49465314588E+02  0.00000000000E+00 0.  1.
         14    1    5    5    0    0 -0.63101448036E+02  0.93316663862E+01 -0.11709960892E+03  0.13334613287E+03  0.00000000000E+00 0. -1.
          5    1    4    4  501    0  0.25048584342E+03  0.12139834232E+03  0.15089360044E+03  0.31665704465E+03  0.47000000000E+01 0.  1.
         -5    1    4    4    0  501  0.41862257563E+02  0.24505964862E+02  0.10827356210E+03  0.11873603148E+03  0.47000000000E+01 0.  1.
          1    1    1    2  502    0 -0.38120100540E+01  0.25676560723E+02  0.12109546619E+04  0.12112328473E+04  0.00000000000E+00 0. -1.
          1    1    1    2  503    0 -0.98133727430E+02  0.45087745914E+02 -0.21242392911E+04  0.21269827689E+04  0.00000000000E+00 0. -1.
<mgrwt>
<rscale>  0 0.53016255E+02</rscale>
<asrwt>0</asrwt>
<pdfrwt beam="1">  1        2 0.23273548E+00 0.25957989E+02</pdfrwt>
<pdfrwt beam="2">  1        2 0.64626472E+00 0.10827970E+03</pdfrwt>
<totfact> 0.96963117E-01</totfact>
</mgrwt>
</event>
<event>
13    1  0.2101801E-008  0.8430912E+02  0.7546771E-02  0.1337665E+00
          2   -1    0    0  502    0  0.00000000000E+00  0.00000000000E+00  0.14372213025E+04  0.14372213025E+04  0.00000000000E+00 0. -1.
          2   -1    0    0  503    0 -0.00000000000E+00 -0.00000000000E+00 -0.24737838034E+04  0.24737838034E+04  0.00000000000E+00 0. -1.
         24    2    1    2    0    0 -0.36194757284E+02  0.30124776379E+01 -0.45362354110E+02  0.99528846649E+02  0.80802924875E+02 0.  0.
         25    2    1    2    0    0 -0.15716917401E+03  0.28148504425E+02  0.27478960264E+03  0.34150920420E+03  0.12499889310E+03 0.  0.
         24    2    1    2    0    0  0.39653791805E+02 -0.23033568453E+02 -0.10912596476E+03  0.14247403675E+03  0.79293167948E+02 0.  0.
        -11    1    3    3    0    0 -0.54549679022E+02  0.18911488471E+02 -0.13192786111E+02  0.59222981037E+02  0.00000000000E+00 0.  1.
         12    1    3    3    0    0  0.18354921737E+02 -0.15899010833E+02 -0.32169567999E+02  0.40305865611E+02  0.00000000000E+00 0. -1.
        -13    1    5    5    0    0  0.17568151053E+02 -0.42095062637E+02 -0.22095141375E+02  0.50683621636E+02  0.00000000000E+00 0.  1.
         14    1    5    5    0    0  0.22085640752E+02  0.19061494183E+02 -0.87030823385E+02  0.91790415115E+02  0.00000000000E+00 0. -1.
          5    1    4    4  501    0 -0.48387225621E+01 -0.49391984221E+00 -0.12969063199E+02  0.14626817600E+02  0.47000000000E+01 0. -1.
         -5    1    4    4    0  501 -0.15233045145E+03  0.28642424268E+02  0.28775866583E+03  0.32688238660E+03  0.47000000000E+01 0. -1.
          1    1    1    2  502    0  0.70325449078E+02  0.32255337029E+01  0.10833821391E+04  0.10856670448E+04  0.00000000000E+00 0. -1.
          1    1    1    2  503    0  0.83384690412E+02 -0.11352947313E+02 -0.22402459238E+04  0.22418259734E+04  0.00000000000E+00 0. -1.
<mgrwt>
<rscale>  0 0.77040961E+02</rscale>
<asrwt>0</asrwt>
<pdfrwt beam="1">  1        2 0.21135608E+00 0.70399381E+02</pdfrwt>
<pdfrwt beam="2">  1        2 0.36379173E+00 0.84309118E+02</pdfrwt>
<totfact> 0.15152497E+01</totfact>
</mgrwt>
</event>
<event>
13    1  0.2101801E-008  0.6990218E+02  0.7546771E-02  0.1369821E+00
          2   -1    0    0  502    0  0.00000000000E+00  0.00000000000E+00  0.74236662799E+03  0.74236662799E+03  0.00000000000E+00 0. -1.
          2   -1    0    0  503    0 -0.00000000000E+00 -0.00000000000E+00 -0.12062632759E+04  0.12062632759E+04  0.00000000000E+00 0. -1.
         24    2    1    2    0    0 -0.21553127650E+01  0.54342433064E+02 -0.33565064160E+02  0.99113613622E+02  0.75757174371E+02 0.  0.
         25    2    1    2    0    0  0.38932825867E+02 -0.77913631902E+02  0.21141892513E+03  0.26059398892E+03  0.12499986477E+03 0.  0.
         24    2    1    2    0    0  0.36546394269E+02  0.11469752026E+02 -0.20030512854E+01  0.88469449208E+02  0.79722249612E+02 0.  0.
        -11    1    5    5    0    0  0.59946394968E+02  0.16266355480E+02 -0.10738804773E+02  0.63035597231E+02  0.00000000000E+00 0.  1.
         12    1    5    5    0    0 -0.23400000699E+02 -0.47966034547E+01  0.87357534875E+01  0.25433851978E+02  0.00000000000E+00 0. -1.
        -13    1    3    3    0    0  0.28428790799E+02  0.44707983321E+02 -0.40098385959E+00  0.52982645338E+02  0.00000000000E+00 0.  1.
         14    1    3    3    0    0 -0.30584103564E+02  0.96344497432E+01 -0.33164080301E+02  0.46130968284E+02  0.00000000000E+00 0. -1.
          5    1    4    4  501    0  0.42542138688E+02 -0.62887128845E+02  0.22623101110E+03  0.23867799422E+03  0.47000000000E+01 0. -1.
         -5    1    4    4    0  501 -0.36093128208E+01 -0.15026503057E+02 -0.14812085971E+02  0.21915994707E+02  0.47000000000E+01 0. -1.
          1    1    1    2  502    0 -0.51006674716E+02 -0.48558124557E+02  0.42648638730E+03  0.43226173886E+03  0.00000000000E+00 0. -1.
          1    1    1    2  503    0 -0.22317232655E+02  0.60659571370E+02 -0.10662338449E+04  0.10681911133E+04  0.00000000000E+00 0. -1.
<mgrwt>
<rscale>  0 0.67216851E+02</rscale>
<asrwt>0</asrwt>
<pdfrwt beam="1">  1        2 0.10917156E+00 0.69902175E+02</pdfrwt>
<pdfrwt beam="2">  1        2 0.17739166E+00 0.64634685E+02</pdfrwt>
<totfact> 0.15559974E+02</totfact>
</mgrwt>
</event>
<event>
13    1  0.2101801E-008  0.1098524E+03  0.7546771E-02  0.1271029E+00
          2   -1    0    0  503    0  0.00000000000E+00  0.00000000000E+00  0.72461739631E+03  0.72461739631E+03  0.00000000000E+00 0. -1.
          2   -1    0    0  502    0 -0.00000000000E+00 -0.00000000000E+00 -0.16381735778E+04  0.16381735778E+04  0.00000000000E+00 0. -1.
         24    2    1    2    0    0 -0.48513751753E+02  0.69751027710E+02  0.16269300989E+02  0.11811947570E+03  0.80428417916E+02 0.  0.
         25    2    1    2    0    0  0.18230569645E+03  0.43644260263E+02  0.23750612132E+03  0.32737414069E+03  0.12499792766E+03 0.  0.
         24    2    1    2    0    0  0.40378859263E+01  0.30320459710E+02 -0.83619481793E+02  0.12060339243E+03  0.81346946653E+02 0.  0.
        -13    1    5    5    0    0 -0.32016915164E+02  0.38271397551E+02 -0.45348898538E+02  0.67426295506E+02  0.00000000000E+00 0.  1.
         14    1    5    5    0    0  0.36054801090E+02 -0.79509378411E+01 -0.38270583256E+02  0.53177096921E+02  0.00000000000E+00 0. -1.
        -13    1    3    3    0    0 -0.42265082058E+02  0.66632743843E+02  0.43434375872E+02  0.90071109246E+02  0.00000000000E+00 0.  1.
         14    1    3    3    0    0 -0.62486696953E+01  0.31182838677E+01 -0.27165074882E+02  0.28048366452E+02  0.00000000000E+00 0. -1.
          5    1    4    4  501    0  0.14050389275E+03 -0.26681856059E+02  0.14321074293E+03  0.20244671450E+03  0.47000000000E+01 0. -1.
         -5    1    4    4    0  501  0.41801803693E+02  0.70326116322E+02  0.94295378386E+02  0.12492742619E+03  0.47000000000E+01 0. -1.
          1    1    1    2  502    0 -0.28106745527E+02 -0.13777476214E+03 -0.14282000293E+04  0.14351052916E+04  0.00000000000E+00 0. -1.
          1    1    1    2  503    0 -0.10972308509E+03 -0.59409855478E+01  0.34448790728E+03  0.36158867374E+03  0.00000000000E+00 0. -1.
<mgrwt>
<rscale>  0 0.10453994E+03</rscale>
<asrwt>0</asrwt>
<pdfrwt beam="1">  1        2 0.10656138E+00 0.10985236E+03</pdfrwt>
<pdfrwt beam="2">  1        2 0.24090787E+00 0.99484416E+02</pdfrwt>
<totfact> 0.93167250E+01</totfact>
</mgrwt>
</event>
<event>
13    1  0.2101801E-008  0.7537102E+02  0.7546771E-02  0.1454118E+00
          2   -1    0    0  502    0  0.00000000000E+00  0.00000000000E+00  0.29167697569E+04  0.29167697569E+04  0.00000000000E+00 0. -1.
          2   -1    0    0  503    0 -0.00000000000E+00 -0.00000000000E+00 -0.25263404609E+04  0.25263404609E+04  0.00000000000E+00 0. -1.
         24    2    1    2    0    0  0.17807006661E+02  0.46597557631E+01 -0.21669098325E+03  0.23208780267E+03  0.81061477390E+02 0.  0.
         25    2    1    2    0    0  0.77630004589E+02  0.23755699602E+00 -0.97542887038E+01  0.14746658907E+03  0.12499909879E+03 0.  0.
         24    2    1    2    0    0 -0.76131540731E+02  0.38955783586E+02  0.89256325228E+00  0.11540933863E+03  0.77491639574E+02 0.  0.
        -11    1    5    5    0    0 -0.38551635326E+02  0.86138907869E+01  0.37760183761E+02  0.54646675823E+02  0.00000000000E+00 0.  1.
         12    1    5    5    0    0 -0.37579905405E+02  0.30341892799E+02 -0.36867620509E+02  0.60762662802E+02  0.00000000000E+00 0. -1.
        -13    1    3    3    0    0 -0.18218551249E+02 -0.25715805941E+02 -0.52158674171E+02  0.60940508498E+02  0.00000000000E+00 0.  1.
         14    1    3    3    0    0  0.36025557910E+02  0.30375561704E+02 -0.16453230908E+03  0.17114729417E+03  0.00000000000E+00 0. -1.
          5    1    4    4  501    0 -0.76948318162E+01  0.36431533444E+02 -0.34971069140E+02  0.51298467253E+02  0.47000000000E+01 0. -1.
         -5    1    4    4    0  501  0.85324836406E+02 -0.36193976448E+02  0.25216780436E+02  0.96168121820E+02  0.47000000000E+01 0. -1.
          1    1    1    2  502    0 -0.46039668898E+02 -0.59726964451E+02  0.27814415893E+04  0.27824637061E+04  0.00000000000E+00 0. -1.
          1    1    1    2  503    0  0.26734198378E+02  0.15873868106E+02 -0.21654595846E+04  0.21656827813E+04  0.00000000000E+00 0. -1.
<mgrwt>
<rscale>  0 0.48408852E+02</rscale>
<asrwt>0</asrwt>
<pdfrwt beam="1">  1        2 0.42893673E+00 0.75371016E+02</pdfrwt>
<pdfrwt beam="2">  1        2 0.37152066E+00 0.31091752E+02</pdfrwt>
<totfact> 0.31146316E+00</totfact>
</mgrwt>
</event>
<event>
13    1  0.2101801E-008  0.7976412E+02  0.7546771E-02  0.1435808E+00
         -1   -1    0    0    0  501 -0.00000000000E+00  0.00000000000E+00  0.10331516210E+04  0.10331516210E+04  0.00000000000E+00 0.  1.
          2   -1    0    0  503    0  0.00000000000E+00 -0.00000000000E+00 -0.26999118636E+04  0.26999118636E+04  0.00000000000E+00 0. -1.
         24    2    1    2    0    0  0.24747324328E+02  0.28987050911E+02  0.91605047951E+02  0.11865402109E+03  0.65073902051E+02 0.  0.
         25    2    1    2    0    0 -0.30219209715E+03  0.71991927288E+02 -0.16093101182E+04  0.16437779718E+04  0.12499625133E+03 0.  0.
         24    2    1    2    0    0  0.21722101908E+03 -0.20766839238E+02 -0.38285380271E+03  0.44806278129E+03  0.81036960597E+02 0.  0.
        -13    1    3    3    0    0  0.12656726984E+02 -0.17349684745E+02  0.52856325294E+02  0.57052567184E+02  0.00000000000E+00 0.  1.
         14    1    3    3    0    0  0.12090597345E+02  0.46336735656E+02  0.38748722657E+02  0.61601453903E+02  0.00000000000E+00 0. -1.
        -13    1    5    5    0    0  0.57930790128E+02 -0.42249514992E+02 -0.10713551646E+03  0.12891476583E+03  0.00000000000E+00 0.  1.
         14    1    5    5    0    0  0.15929022895E+03  0.21482675754E+02 -0.27571828625E+03  0.31914801546E+03  0.00000000000E+00 0. -1.
          5    1    4    4  502    0 -0.26289123027E+03  0.33708334147E+02 -0.14747734183E+04  0.14984080806E+04  0.47000000000E+01 0.  1.
         -5    1    4    4    0  502 -0.39300866872E+02  0.38283593141E+02 -0.13453669993E+03  0.14536989121E+03  0.47000000000E+01 0.  1.
          1    1    1    2  503    0  0.31060446054E+02  0.12957419132E+02 -0.64122909858E+03  0.64211167478E+03  0.00000000000E+00 0. -1.
         -2    1    1    2    0  501  0.29163307681E+02 -0.93169558093E+02  0.87502772900E+03  0.88045703563E+03  0.00000000000E+00 0.  1.
<mgrwt>
<rscale>  0 0.51811642E+02</rscale>
<asrwt>0</asrwt>
<pdfrwt beam="2">  1        2 0.39704586E+00 0.33654807E+02</pdfrwt>
<pdfrwt beam="1">  1       -1 0.15193406E+00 0.79764124E+02</pdfrwt>
<totfact> 0.22351091E+00</totfact>
</mgrwt>
</event>
<event>
13    1  0.2101801E-008  0.9821389E+02  0.7546771E-02  0.1420956E+00
         -1   -1    0    0    0  501 -0.00000000000E+00  0.00000000000E+00  0.14837269678E+04  0.14837269678E+04  0.00000000000E+00 0.  1.
          2   -1    0    0  503    0  0.00000000000E+00 -0.00000000000E+00 -0.19386177617E+04  0.19386177617E+04  0.00000000000E+00 0. -1.
         24    2    1    2    0    0 -0.51410209122E+02  0.51206628564E+02  0.11536818755E+03  0.15760086923E+03  0.79139666881E+02 0.  0.
         25    2    1    2    0    0  0.46819156662E+01  0.82434160447E+01 -0.64359302991E+02  0.14092054516E+03  0.12500642353E+03 0.  0.
         24    2    1    2    0    0  0.56935769815E+02  0.39794588706E+02 -0.25490152702E+03  0.27608270306E+03  0.80134756985E+02 0.  0.
        -11    1    5    5    0    0  0.10439787919E+02 -0.12670105719E+02 -0.59706677783E+01  0.17469104855E+02  0.00000000000E+00 0.  1.
         12    1    5    5    0    0  0.46495981896E+02  0.52464694425E+02 -0.24893085925E+03  0.25861359821E+03  0.00000000000E+00 0. -1.
        -11    1    3    3    0    0 -0.59032786534E+02  0.36163717557E+01  0.61734669269E+02  0.85493376471E+02  0.00000000000E+00 0.  1.
         12    1    3    3    0    0  0.76225774117E+01  0.47590256808E+02  0.53633518278E+02  0.72107492762E+02  0.00000000000E+00 0. -1.
          5    1    4    4  502    0  0.62535299619E+02  0.16321018110E+02 -0.21345817546E+02  0.68225898729E+02  0.47000000000E+01 0. -1.
         -5    1    4    4    0  502 -0.57853383953E+02 -0.80776020651E+01 -0.43013485444E+02  0.72694646433E+02  0.47000000000E+01 0. -1.
          1    1    1    2  503    0  0.29165736561E+02 -0.92518747602E+01 -0.15473600220E+04  0.15476625197E+04  0.00000000000E+00 0. -1.
         -2    1    1    2    0  501 -0.39373212920E+02 -0.89992758554E+02  0.12963618706E+04  0.13000780923E+04  0.00000000000E+00 0.  1.
<mgrwt>
<rscale>  0 0.54819231E+02</rscale>
<asrwt>0</asrwt>
<pdfrwt beam="2">  1        2 0.28509085E+00 0.30597996E+02</pdfrwt>
<pdfrwt beam="1">  1       -1 0.21819514E+00 0.98213886E+02</pdfrwt>
<totfact> 0.17906111E+00</totfact>
</mgrwt>
</event>
<event>
13    1  0.2101801E-008  0.8988132E+02  0.7546771E-02  0.1330670E+00
         -3   -1    0    0    0  501 -0.00000000000E+00  0.00000000000E+00  0.14035816582E+04  0.14035816582E+04  0.00000000000E+00 0.  1.
          4   -1    0    0  503    0  0.00000000000E+00 -0.00000000000E+00 -0.48688065808E+03  0.48688065808E+03  0.00000000000E+00 0. -1.
         24    2    1    2    0    0 -0.65397587816E+02 -0.10729695571E+02  0.53478819249E+03  0.54387457973E+03  0.73547105938E+02 0.  0.
         25    2    1    2    0    0 -0.25682187219E+02 -0.14097087734E+02 -0.12693399430E+03  0.18054425336E+03  0.12500274353E+03 0.  0.
         24    2    1    2    0    0 -0.62547374181E+01  0.10829332831E+02 -0.44805751847E+02  0.92093601628E+02  0.79481317758E+02 0.  0.
        -11    1    5    5    0    0  0.12036497261E+02 -0.25007593494E+02 -0.43791940582E+02  0.51845839357E+02  0.00000000000E+00 0.  1.
         12    1    5    5    0    0 -0.18291234679E+02  0.35836926326E+02 -0.10138112647E+01  0.40247762271E+02  0.00000000000E+00 0. -1.
        -13    1    3    3    0    0 -0.28149779593E+02  0.21123120618E+02  0.37727003475E+03  0.37890800392E+03  0.00000000000E+00 0.  1.
         14    1    3    3    0    0 -0.37247808223E+02 -0.31852816189E+02  0.15751815775E+03  0.16496657581E+03  0.00000000000E+00 0. -1.
          5    1    4    4  502    0 -0.74218025387E+02  0.86080567912E+00 -0.93863372336E+02  0.11975591403E+03  0.47000000000E+01 0. -1.
         -5    1    4    4    0  502  0.48535838168E+02 -0.14957893413E+02 -0.33070621960E+02  0.60788339333E+02  0.47000000000E+01 0. -1.
          3    1    1    2  503    0 -0.34765119629E+01 -0.70111758093E+02 -0.24998723648E+03  0.25965624037E+03  0.00000000000E+00 0. -1.
         -4    1    1    2    0  501  0.10081102442E+03  0.84109208566E+02  0.80363979028E+03  0.81429364122E+03  0.00000000000E+00 0.  1.
<mgrwt>
<rscale>  0 0.79432232E+02</rscale>
<asrwt>0</asrwt>
<pdfrwt beam="2">  1        4 0.71600097E-01 0.70197897E+02</pdfrwt>
<pdfrwt beam="1">  1       -3 0.20640907E+00 0.89881318E+02</pdfrwt>
<totfact> 0.53987195E-01</totfact>
</mgrwt>
</event>
<event>
13    1  0.2101801E-008  0.1442995E+03  0.7546771E-02  0.1293357E+00
          2   -1    0    0  503    0  0.00000000000E+00  0.00000000000E+00  0.22116527139E+04  0.22116527139E+04  0.00000000000E+00 0. -1.
          2   -1    0    0  502    0 -0.00000000000E+00 -0.00000000000E+00 -0.46974207788E+03  0.46974207788E+03  0.00000000000E+00 0. -1.
         24    2    1    2    0    0 -0.98811335914E+01  0.41430140592E+02 -0.47921512362E+02  0.10288665482E+03  0.80468000119E+02 0.  0.
         25    2    1    2    0    0 -0.13432806159E+03  0.10595205995E+03  0.74019135376E+03  0.76992019125E+03  0.12499597424E+03 0.  0.
         24    2    1    2    0    0  0.80892306447E+01  0.32505110952E+02 -0.18753790432E+02  0.89532656748E+02  0.80884943459E+02 0.  0.
        -11    1    3    3    0    0  0.14386968883E+02 -0.13734920415E+02  0.72589498772E+01  0.21173692776E+02  0.00000000000E+00 0.  1.
         12    1    3    3    0    0 -0.24268102475E+02  0.55165061007E+02 -0.55180462239E+02  0.81712962047E+02  0.00000000000E+00 0. -1.
        -11    1    5    5    0    0 -0.17231000778E+02  0.63129278911E+01  0.26001385023E+02  0.31825028979E+02  0.00000000000E+00 0.  1.
         12    1    5    5    0    0  0.25320231423E+02  0.26192183060E+02 -0.44755175455E+02  0.57707627769E+02  0.00000000000E+00 0. -1.
          5    1    4    4  501    0 -0.48240990858E+02  0.25863928456E+02  0.49406464087E+03  0.49710974176E+03  0.47000000000E+01 0. -1.
         -5    1    4    4    0  501 -0.86087070730E+02  0.80088131498E+02  0.24612671289E+03  0.27281044949E+03  0.47000000000E+01 0. -1.
          1    1    1    2  502    0  0.11274770444E+03 -0.23653906231E+03 -0.27175240817E+03  0.37750780681E+03  0.00000000000E+00 0. -1.
          1    1    1    2  503    0  0.23372260098E+02  0.56651750817E+02  0.13401469932E+04  0.13415474821E+04  0.00000000000E+00 0. -1.
<mgrwt>
<rscale>  0 0.94038270E+02</rscale>
<asrwt>0</asrwt>
<pdfrwt beam="1">  1        2 0.32524304E+00 0.61283631E+02</pdfrwt>
<pdfrwt beam="2">  1        2 0.69079718E-01 0.14429948E+03</pdfrwt>
<totfact> 0.84298632E+01</totfact>
</mgrwt>
</event>
<event>
13    1  0.2101801E-008  0.3335635E+03  0.7546771E-02  0.1181287E+00
          4   -1    0    0  503    0 -0.00000000000E+00  0.00000000000E+00  0.21215494777E+04  0.21215494777E+04  0.00000000000E+00 0. -1.
          2   -1    0    0  502    0  0.00000000000E+00 -0.00000000000E+00 -0.31171753413E+04  0.31171753413E+04  0.00000000000E+00 0. -1.
         24    2    1    2    0    0  0.19043722941E+03  0.35206350353E+03  0.78124256963E+03  0.88360792457E+03  0.10103446386E+03 0.  0.
         25    2    1    2    0    0  0.30741517348E+02 -0.54749099757E+01 -0.26799465359E+03  0.29735914096E+03  0.12500523523E+03 0.  0.
         24    2    1    2    0    0 -0.47468076118E+03 -0.63362574439E+03  0.45433488169E+03  0.91643756329E+03  0.81450682599E+02 0.  0.
        -11    1    5    5    0    0 -0.30978129502E+03 -0.39490138977E+03  0.33065775049E+03  0.60103752491E+03  0.00000000000E+00 0.  1.
         12    1    5    5    0    0 -0.16489946616E+03 -0.23872435462E+03  0.12367713120E+03  0.31540003838E+03  0.00000000000E+00 0. -1.
        -13    1    3    3    0    0  0.83065910575E+02  0.21420787957E+03  0.52917893548E+03  0.57690147073E+03  0.00000000000E+00 0.  1.
         14    1    3    3    0    0  0.10737131883E+03  0.13785562396E+03  0.25206363415E+03  0.30670645384E+03  0.00000000000E+00 0. -1.
          5    1    4    4  501    0 -0.30864713230E+02 -0.39340724181E+02 -0.62849475738E+02  0.80451660656E+02  0.47000000000E+01 0. -1.
         -5    1    4    4    0  501  0.61606230578E+02  0.33865814205E+02 -0.20514517785E+03  0.21690748031E+03  0.47000000000E+01 0. -1.
          1    1    1    2  502    0  0.82595545619E+02  0.11209358802E+02 -0.25068332160E+04  0.25082185803E+04  0.00000000000E+00 0. -1.
          3    1    1    2  503    0  0.17090646880E+03  0.27582779203E+03  0.54362455463E+03  0.63310160980E+03  0.00000000000E+00 0. -1.
<mgrwt>
<rscale>  0 0.16674358E+03</rscale>
<asrwt>0</asrwt>
<pdfrwt beam="2">  1        2 0.45840813E+00 0.83352708E+02</pdfrwt>
<pdfrwt beam="1">  1        4 0.31199257E+00 0.33356349E+03</pdfrwt>
<totfact> 0.40627314E-02</totfact>
</mgrwt>
</event>
<event>
13    1  0.2101801E-008  0.2199866E+03  0.7546771E-02  0.1231036E+00
          2   -1    0    0  503    0  0.00000000000E+00  0.00000000000E+00  0.15784963929E+04  0.15784963929E+04  0.00000000000E+00 0. -1.
          2   -1    0    0  502    0 -0.00000000000E+00 -0.00000000000E+00 -0.36641769526E+04  0.36641769526E+04  0.00000000000E+00 0. -1.
         24    2    1    2    0    0  0.19192712961E+02  0.55076337263E+02 -0.18108120724E+03  0.20687623074E+03  0.81274892006E+02 0.  0.
         25    2    1    2    0    0 -0.31641027367E+03  0.75657527788E+02 -0.10751217855E+03  0.36472285458E+03  0.12499747728E+03 0.  0.
         24    2    1    2    0    0  0.11944163855E+03  0.63965719878E+02  0.37577017758E+03  0.40820705557E+03  0.84094325127E+02 0.  0.
        -13    1    3    3    0    0  0.27954593950E+02 -0.11702861129E+02 -0.78642559827E+02  0.84279703948E+02  0.00000000000E+00 0.  1.
         14    1    3    3    0    0 -0.87618809890E+01  0.66779198392E+02 -0.10243864741E+03  0.12259652679E+03  0.00000000000E+00 0. -1.
        -13    1    5    5    0    0 -0.44838241874E+01 -0.12106469950E+02  0.46480843339E+02  0.48240440415E+02  0.00000000000E+00 0.  1.
         14    1    5    5    0    0  0.12392546274E+03  0.76072189828E+02  0.32928933424E+03  0.35996661515E+03  0.00000000000E+00 0. -1.
          5    1    4    4  501    0 -0.16069468151E+03 -0.16077430017E+02 -0.84932279662E+02  0.18252902934E+03  0.47000000000E+01 0.  1.
         -5    1    4    4    0  501 -0.15571559216E+03  0.91734957805E+02 -0.22579898886E+02  0.18219382525E+03  0.47000000000E+01 0.  1.
          1    1    1    2  502    0 -0.20329335932E+02 -0.10561694321E+03 -0.32056632454E+04  0.32074670791E+04  0.00000000000E+00 0. -1.
          1    1    1    2  503    0  0.19810525809E+03 -0.89082641723E+02  0.10328058939E+04  0.10554001255E+04  0.00000000000E+00 0. -1.
<mgrwt>
<rscale>  0 0.12761626E+03</rscale>
<asrwt>0</asrwt>
<pdfrwt beam="1">  1        2 0.23213182E+00 0.21998657E+03</pdfrwt>
<pdfrwt beam="2">  1        2 0.53884955E+00 0.74031382E+02</pdfrwt>
<totfact> 0.27532205E+00</totfact>
</mgrwt>
</event>
<event>
13    1  0.2101801E-008  0.1485816E+03  0.7546771E-02  0.1318586E+00
          2   -1    0    0  502    0  0.00000000000E+00  0.00000000000E+00  0.15714589265E+04  0.15714589265E+04  0.00000000000E+00 0. -1.
          2   -1    0    0  503    0 -0.00000000000E+00 -0.00000000000E+00 -0.24857886850E+04  0.24857886850E+04  0.00000000000E+00 0. -1.
         24    2    1    2    0    0  0.62974112040E+02  0.65144731656E+02 -0.45583118260E+03  0.47190035129E+03  0.81843140597E+02 0.  0.
         25    2    1    2    0    0  0.14368067344E+03  0.41481375221E+02  0.36419955574E+03  0.41307182555E+03  0.12498870450E+03 0.  0.
         24    2    1    2    0    0 -0.44014012899E+01 -0.21848526873E+02 -0.96835557699E+02  0.13060988714E+03  0.84764892052E+02 0.  0.
        -11    1    5    5    0    0 -0.37783014650E+02 -0.34643825768E+02 -0.49204669906E+02  0.71055263003E+02  0.00000000000E+00 0.  1.
         12    1    5    5    0    0  0.33381613360E+02  0.12795298896E+02 -0.47630887793E+02  0.59554624139E+02  0.00000000000E+00 0. -1.
        -11    1    3    3    0    0  0.38720795983E+02  0.63911584343E+02 -0.17853201665E+03  0.19353984505E+03  0.00000000000E+00 0.  1.
         12    1    3    3    0    0  0.24253316057E+02  0.12331473132E+01 -0.27729916596E+03  0.27836050624E+03  0.00000000000E+00 0. -1.
          5    1    4    4  501    0  0.26732877484E+02 -0.37168030579E+02  0.46214315950E+02  0.65222405923E+02  0.47000000000E+01 0. -1.
         -5    1    4    4    0  501  0.11694779596E+03  0.78649405800E+02  0.31798523979E+03  0.34784941963E+03  0.47000000000E+01 0. -1.
          1    1    1    2  502    0  0.68775329098E+01  0.46766276341E+02  0.11493128368E+04  0.11502844787E+04  0.00000000000E+00 0. -1.
          1    1    1    2  503    0 -0.20913091710E+03 -0.13154385635E+03 -0.18751754107E+04  0.18913810689E+04  0.00000000000E+00 0. -1.
<mgrwt>
<rscale>  0 0.83805402E+02</rscale>
<asrwt>0</asrwt>
<pdfrwt beam="1">  1        2 0.23109690E+00 0.47269282E+02</pdfrwt>
<pdfrwt beam="2">  1        2 0.36555716E+00 0.14858160E+03</pdfrwt>
<totfact> 0.12385720E+01</totfact>
</mgrwt>
</event>
<event>
13    1  0.2101801E-008  0.1268209E+03  0.7546771E-02  0.1323136E+00
          2   -1    0    0  502    0  0.00000000000E+00  0.00000000000E+00  0.49625640044E+04  0.49625640044E+04  0.00000000000E+00 0. -1.
          2   -1    0    0  503    0 -0.00000000000E+00 -0.00000000000E+00 -0.13738351513E+04  0.13738351513E+04  0.00000000000E+00 0. -1.
         24    2    1    2    0    0 -0.36685337127E+00  0.31212917536E+02 -0.49241962939E+03  0.49996526738E+03  0.80708093602E+02 0.  0.
         25    2    1    2    0    0  0.22379553886E+03  0.51539570152E+02  0.13184128147E+04  0.13440899027E+04  0.12499818419E+03 0.  0.
         24    2    1    2    0    0 -0.21270411360E+03  0.78482199951E+02  0.10713225355E+03  0.25968810898E+03  0.67513691515E+02 0.  0.
        -11    1    5    5    0    0 -0.18131341560E+03  0.50517357033E+02  0.62382037488E+02  0.19828786307E+03  0.00000000000E+00 0.  1.
         12    1    5    5    0    0 -0.31390697999E+02  0.27964842917E+02  0.44750216062E+02  0.61400245910E+02  0.00000000000E+00 0. -1.
        -13    1    3    3    0    0 -0.39021393212E+02  0.21665735538E+02 -0.20511716192E+03  0.20991694390E+03  0.00000000000E+00 0.  1.
         14    1    3    3    0    0  0.38654539841E+02  0.95471819987E+01 -0.28730246747E+03  0.29004832347E+03  0.00000000000E+00 0. -1.
          5    1    4    4  501    0  0.21763795552E+03  0.77828342270E+02  0.12296166522E+04  0.12511605540E+04  0.47000000000E+01 0.  1.
         -5    1    4    4    0  501  0.61575833436E+01 -0.26288772118E+02  0.88796162524E+02  0.92929348707E+02  0.47000000000E+01 0.  1.
          1    1    1    2  502    0 -0.47818153846E+01  0.52961715332E+02  0.34293623525E+04  0.34297746215E+04  0.00000000000E+00 0. -1.
          1    1    1    2  503    0 -0.59427565098E+01 -0.21419640297E+03 -0.77375893833E+03  0.80288125526E+03  0.00000000000E+00 0. -1.
<mgrwt>
<rscale>  0 0.82121692E+02</rscale>
<asrwt>0</asrwt>
<pdfrwt beam="1">  1        2 0.72978882E+00 0.53177148E+02</pdfrwt>
<pdfrwt beam="2">  1        2 0.20203458E+00 0.12682087E+03</pdfrwt>
<totfact> 0.42771839E-01</totfact>
</mgrwt>
</event>
<event>
13    1  0.2101801E-008  0.1635433E+03  0.7546771E-02  0.1288276E+00
          2   -1    0    0  503    0  0.00000000000E+00  0.00000000000E+00  0.22105713995E+04  0.22105713995E+04  0.00000000000E+00 0. -1.
          2   -1    0    0  502    0 -0.00000000000E+00 -0.00000000000E+00 -0.34040190899E+04  0.34040190899E+04  0.00000000000E+00 0. -1.
         24    2    1    2    0    0 -0.11496319094E+03  0.11297832543E+03 -0.32721491071E+03  0.37347660667E+03  0.80215588556E+02 0.  0.
         25    2    1    2    0    0  0.23546770854E+03 -0.38883452912E+03 -0.28300291637E+03  0.54986744131E+03  0.12500487807E+03 0.  0.
         24    2    1    2    0    0 -0.22851222360E+03  0.22797384118E+03  0.22144404231E+03  0.39970431308E+03  0.80846554793E+02 0.  0.
        -11    1    5    5    0    0 -0.19042762122E+02  0.62167254209E+02  0.34160541051E+02  0.73446149321E+02  0.00000000000E+00 0.  1.
         12    1    5    5    0    0 -0.20946946148E+03  0.16580658697E+03  0.18728350126E+03  0.32625816376E+03  0.00000000000E+00 0. -1.
        -11    1    3    3    0    0 -0.12244692405E+03  0.83862165885E+02 -0.28874711386E+03  0.32465521379E+03  0.00000000000E+00 0.  1.
         12    1    3    3    0    0  0.74837331135E+01  0.29116159547E+02 -0.38467796849E+02  0.48821392878E+02  0.00000000000E+00 0. -1.
          5    1    4    4  501    0  0.21309404533E+03 -0.37796150443E+03 -0.22994923172E+03  0.49108320085E+03  0.47000000000E+01 0. -1.
         -5    1    4    4    0  501  0.22373663203E+02 -0.10873024683E+02 -0.53053684655E+02  0.58784240460E+02  0.47000000000E+01 0. -1.
          1    1    1    2  502    0 -0.53266710864E+02  0.19442719007E+02 -0.25439457703E+04  0.25445776553E+04  0.00000000000E+00 0. -1.
          1    1    1    2  503    0  0.16127441686E+03  0.28439643498E+02  0.17392718646E+04  0.17469644730E+04  0.00000000000E+00 0. -1.
<mgrwt>
<rscale>  0 0.96299447E+02</rscale>
<asrwt>0</asrwt>
<pdfrwt beam="1">  1        2 0.32508403E+00 0.16354326E+03</pdfrwt>
<pdfrwt beam="2">  1        2 0.50059104E+00 0.56704160E+02</pdfrwt>
<totfact> 0.20487304E+00</totfact>
</mgrwt>
</event>
<event>
13    1  0.2101801E-008  0.4899469E+02  0.7546771E-02  0.1581900E+00
          2   -1    0    0  502    0  0.00000000000E+00  0.00000000000E+00  0.18048478173E+04  0.18048478173E+04  0.00000000000E+00 0. -1.
          4   -1    0    0  503    0 -0.00000000000E+00 -0.00000000000E+00 -0.41148161808E+03  0.41148161808E+03  0.00000000000E+00 0. -1.
         24    2    1    2    0    0 -0.89937495412E+02  0.15097438330E+02 -0.17903452943E+03  0.21618218433E+03  0.79778997017E+02 0.  0.
         25    2    1    2    0    0  0.42429708109E+02 -0.58334705543E+02  0.42905391127E+03  0.45268082505E+03  0.12501780908E+03 0.  0.
         24    2    1    2    0    0  0.24402960107E+02  0.23910710636E+02  0.86639034454E+02  0.12281207057E+03  0.80057828112E+02 0.  0.
        -13    1    5    5    0    0  0.39935045107E+02 -0.16303723309E+02  0.35034011655E+02  0.55569786702E+02  0.00000000000E+00 0.  1.
         14    1    5    5    0    0 -0.15532085000E+02  0.40214433946E+02  0.51605022799E+02  0.67242283870E+02  0.00000000000E+00 0. -1.
        -13    1    3    3    0    0  0.12272918677E+02 -0.44079672048E+01 -0.61943837834E+01  0.14436935207E+02  0.00000000000E+00 0.  1.
         14    1    3    3    0    0 -0.10221041409E+03  0.19505405535E+02 -0.17284014565E+03  0.20174524912E+03  0.00000000000E+00 0. -1.
          5    1    4    4  501    0  0.17064346402E+02 -0.21813908830E+02  0.79292010849E+01  0.29189052167E+02  0.47000000000E+01 0. -1.
         -5    1    4    4    0  501  0.25365361707E+02 -0.36520796713E+02  0.42112471019E+03  0.42349177288E+03  0.47000000000E+01 0. -1.
          1    1    1    2  502    0 -0.19720823925E+02 -0.47045677723E+01  0.12373195307E+04  0.12374856221E+04  0.00000000000E+00 0. -1.
          3    1    1    2  503    0  0.42825651121E+02  0.24031124349E+02 -0.18061174774E+03  0.18716873337E+03  0.00000000000E+00 0. -1.
<mgrwt>
<rscale>  0 0.31517121E+02</rscale>
<asrwt>0</asrwt>
<pdfrwt beam="1">  1        2 0.26541879E+00 0.20274216E+02</pdfrwt>
<pdfrwt beam="2">  1        4 0.60512003E-01 0.48994689E+02</pdfrwt>
<totfact> 0.16639291E+01</totfact>
</mgrwt>
</event>
<event>
13    1  0.2101801E-008  0.1418627E+03  0.7546771E-02  0.1424085E+00
          2   -1    0    0  503    0  0.00000000000E+00  0.00000000000E+00  0.45895356047E+03  0.45895356047E+03  0.00000000000E+00 0. -1.
         -1   -1    0    0    0  501 -0.00000000000E+00 -0.00000000000E+00 -0.93120631532E+03  0.93120631532E+03  0.00000000000E+00 0.  1.
         24    2    1    2    0    0  0.25908954865E+02  0.93854046356E+01 -0.29718989691E+03  0.30900519316E+03  0.80018840368E+02 0.  0.
         25    2    1    2    0    0 -0.40064600308E+02 -0.17225059793E+03 -0.26531029052E+03  0.34247074593E+03  0.12498488257E+03 0.  0.
         24    2    1    2    0    0  0.12628203559E+02 -0.96523314860E+02  0.10658337500E+03  0.16529862880E+03  0.80544391603E+02 0.  0.
        -11    1    3    3    0    0  0.28942268863E+02 -0.30014941885E+02 -0.19571681490E+03  0.20010902853E+03  0.00000000000E+00 0.  1.
         12    1    3    3    0    0 -0.30333139980E+01  0.39400346521E+02 -0.10147308201E+03  0.10889616463E+03  0.00000000000E+00 0. -1.
        -11    1    5    5    0    0  0.17065434164E+01  0.16121363859E+01 -0.11290651007E+02  0.11532132254E+02  0.00000000000E+00 0.  1.
         12    1    5    5    0    0  0.10921660142E+02 -0.98135451246E+02  0.11787402601E+03  0.15376649654E+03  0.00000000000E+00 0. -1.
          5    1    4    4  502    0 -0.65869456310E+02 -0.32041580842E+02 -0.79156214480E+02  0.10795019439E+03  0.47000000000E+01 0.  1.
         -5    1    4    4    0  502  0.25804856002E+02 -0.14020901709E+03 -0.18615407604E+03  0.23452055154E+03  0.47000000000E+01 0.  1.
          1    1    1    2  503    0  0.60905330237E+01  0.23921658047E+03  0.22660681874E+03  0.32956382881E+03  0.00000000000E+00 0. -1.
         -2    1    1    2    0  501 -0.45630911398E+01  0.20171927686E+02 -0.24294276116E+03  0.24382147909E+03  0.00000000000E+00 0.  1.
<mgrwt>
<rscale>  0 0.54165925E+02</rscale>
<asrwt>0</asrwt>
<pdfrwt beam="1">  1        2 0.67493171E-01 0.14186271E+03</pdfrwt>
<pdfrwt beam="2">  1       -1 0.13694210E+00 0.20681597E+02</pdfrwt>
<totfact> 0.46740522E+01</totfact>
</mgrwt>
</event>
<event>
13    1  0.2101801E-008  0.2234012E+03  0.7546771E-02  0.1346685E+00
          2   -1    0    0  503    0  0.00000000000E+00  0.00000000000E+00  0.14771941359E+04  0.14771941359E+04  0.00000000000E+00 0. -1.
          2   -1    0    0  502    0 -0.00000000000E+00 -0.00000000000E+00 -0.33291832077E+04  0.33291832077E+04  0.00000000000E+00 0. -1.
         24    2    1    2    0    0  0.50166658483E+02  0.70514536429E+02 -0.57310407134E+03  0.58526342536E+03  0.81215805175E+02 0.  0.
         25    2    1    2    0    0 -0.51966998512E+03  0.22123692183E+03  0.26731234829E+03  0.63724648819E+03  0.12499810454E+03 0.  0.
         24    2    1    2    0    0  0.11811187688E+03 -0.17431734766E+03 -0.89952582635E+03  0.92762600098E+03  0.83703836654E+02 0.  0.
        -13    1    5    5    0    0  0.24448326936E+02 -0.43418391147E+02 -0.39287652644E+03  0.39602379020E+03  0.00000000000E+00 0.  1.
         14    1    5    5    0    0  0.93663549948E+02 -0.13089895651E+03 -0.50664929992E+03  0.53160221078E+03  0.00000000000E+00 0. -1.
        -13    1    3    3    0    0  0.39907784804E+02  0.86321010568E+02 -0.52603950052E+03  0.53456665091E+03  0.00000000000E+00 0.  1.
         14    1    3    3    0    0  0.10258873679E+02 -0.15806474139E+02 -0.47064570815E+02  0.50696774453E+02  0.00000000000E+00 0. -1.
          5    1    4    4  501    0 -0.26319208271E+03  0.74141516348E+02  0.71768605660E+02  0.28273637829E+03  0.47000000000E+01 0. -1.
         -5    1    4    4    0  501 -0.25647790241E+03  0.14709540548E+03  0.19554374263E+03  0.35451010990E+03  0.47000000000E+01 0. -1.
          1    1    1    2  502    0  0.37587372223E+03 -0.11527380377E+03 -0.16279015117E+04  0.16747036863E+04  0.00000000000E+00 0. -1.
          1    1    1    2  503    0 -0.24482272478E+02 -0.21603068274E+01  0.98122998932E+03  0.98153774279E+03  0.00000000000E+00 0. -1.
<mgrwt>
<rscale>  0 0.74098718E+02</rscale>
<asrwt>0</asrwt>
<pdfrwt beam="1">  1        2 0.21723444E+00 0.24577400E+02</pdfrwt>
<pdfrwt beam="2">  1        2 0.48958575E+00 0.22340117E+03</pdfrwt>
<totfact> 0.48063946E+00</totfact>
</mgrwt>
</event>
<event>
13    1  0.2101801E-008  0.1290499E+03  0.7546771E-02  0.1257375E+00
         -3   -1    0    0    0  501 -0.00000000000E+00  0.00000000000E+00  0.10669057124E+04  0.10669057124E+04  0.00000000000E+00 0.  1.
          2   -1    0    0  503    0  0.00000000000E+00 -0.00000000000E+00 -0.27684978687E+04  0.27684978687E+04  0.00000000000E+00 0. -1.
         24    2    1    2    0    0  0.11824326045E+02 -0.44161296641E+02  0.85291834902E+02  0.12490251710E+03  0.78967758416E+02 0.  0.
         25    2    1    2    0    0 -0.12117044530E+03  0.97418209749E+02 -0.29011553959E+03  0.35208636779E+03  0.12500079865E+03 0.  0.
         24    2    1    2    0    0  0.27195512570E+02 -0.43666353045E+02  0.47142432055E+02  0.10663257576E+03  0.80633436129E+02 0.  0.
        -11    1    3    3    0    0 -0.23609413810E+02  0.96049574689E+01  0.14997695733E+02  0.29573476389E+02  0.00000000000E+00 0.  1.
         12    1    3    3    0    0  0.35433739855E+02 -0.53766254109E+02  0.70294139169E+02  0.95329040709E+02  0.00000000000E+00 0. -1.
        -11    1    5    5    0    0 -0.23244622100E+02 -0.44470983134E+01  0.33961039921E+02  0.41393735909E+02  0.00000000000E+00 0.  1.
         12    1    5    5    0    0  0.50440134670E+02 -0.39219254732E+02  0.13181392134E+02  0.65238839856E+02  0.00000000000E+00 0. -1.
          5    1    4    4  502    0  0.21745487486E+02  0.15611762543E+02 -0.83630334499E+02  0.87935864152E+02  0.47000000000E+01 0. -1.
         -5    1    4    4    0  502 -0.14291593279E+03  0.81806447206E+02 -0.20648520509E+03  0.26415050364E+03  0.47000000000E+01 0. -1.
          1    1    1    2  503    0 -0.92960880260E+02 -0.26836402491E+02 -0.23877919660E+04  0.23897515333E+04  0.00000000000E+00 0. -1.
         -4    1    1    2    0  501  0.17511148695E+03  0.17245842428E+02  0.84388108236E+03  0.86203058711E+03  0.00000000000E+00 0.  1.
<mgrwt>
<rscale>  0 0.11174345E+03</rscale>
<asrwt>0</asrwt>
<pdfrwt beam="2">  1        2 0.40713204E+00 0.96757920E+02</pdfrwt>
<pdfrwt beam="1">  1       -3 0.15689790E+00 0.12904988E+03</pdfrwt>
<totfact> 0.73084216E-01</totfact>
</mgrwt>
</event>
<event>
13    1  0.2101801E-008  0.1066969E+03  0.7546771E-02  0.1302710E+00
          2   -1    0    0  503    0  0.00000000000E+00  0.00000000000E+00  0.14445280309E+04  0.14445280309E+04  0.00000000000E+00 0. -1.
          2   -1    0    0  502    0 -0.00000000000E+00 -0.00000000000E+00 -0.11268209071E+04  0.11268209071E+04  0.00000000000E+00 0. -1.
         24    2    1    2    0    0  0.79339991105E+02 -0.21912466648E+02  0.35097263104E+02  0.11964034055E+03  0.79416640740E+02 0.  0.
         25    2    1    2    0    0 -0.14069292903E+02 -0.11738806872E+03  0.68481128785E+03  0.70609389376E+03  0.12499673263E+03 0.  0.
         24    2    1    2    0    0 -0.76971185849E+02  0.29385346572E+02  0.74287859010E+02  0.13701990862E+03  0.80422057412E+02 0.  0.
        -13    1    5    5    0    0 -0.21670165729E+02  0.22473825023E+02  0.75048869857E+02  0.81283465482E+02  0.00000000000E+00 0.  1.
         14    1    5    5    0    0 -0.55301020120E+02  0.69115215485E+01 -0.76101084676E+00  0.55736443140E+02  0.00000000000E+00 0. -1.
        -13    1    3    3    0    0  0.58776870467E+02  0.23229216799E+02  0.97942755548E+01  0.63955022075E+02  0.00000000000E+00 0.  1.
         14    1    3    3    0    0  0.20563120639E+02 -0.45141683447E+02  0.25302987549E+02  0.55685318476E+02  0.00000000000E+00 0. -1.
          5    1    4    4  501    0  0.38587613619E+02 -0.51430355790E+02  0.48316408472E+03  0.48744610798E+03  0.47000000000E+01 0. -1.
         -5    1    4    4    0  501 -0.52656906521E+02 -0.65957712933E+02  0.20164720313E+03  0.21864778579E+03  0.47000000000E+01 0. -1.
          1    1    1    2  502    0 -0.65124072513E+02  0.39206330490E+02 -0.10363232883E+04  0.10391074242E+04  0.00000000000E+00 0. -1.
          1    1    1    2  503    0  0.76824560159E+02  0.70708858309E+02  0.55983400206E+03  0.56948737084E+03  0.00000000000E+00 0. -1.
<mgrwt>
<rscale>  0 0.90058692E+02</rscale>
<asrwt>0</asrwt>
<pdfrwt beam="1">  1        2 0.21243059E+00 0.10669693E+03</pdfrwt>
<pdfrwt beam="2">  1        2 0.16570896E+00 0.76015006E+02</pdfrwt>
<totfact> 0.67001978E+01</totfact>
</mgrwt>
</event>
<event>
13    1  0.2101801E-008  0.3929849E+02  0.7546771E-02  0.1586718E+00
          2   -1    0    0  503    0  0.00000000000E+00  0.00000000000E+00  0.16801046388E+04  0.16801046388E+04  0.00000000000E+00 0. -1.
          2   -1    0    0  502    0 -0.00000000000E+00 -0.00000000000E+00 -0.42173678256E+03  0.42173678256E+03  0.00000000000E+00 0. -1.
         24    2    1    2    0    0  0.15736861357E+02 -0.35755043067E+02  0.13954265864E+02  0.87231049722E+02  0.76736318583E+02 0.  0.
         25    2    1    2    0    0 -0.60667293055E+02  0.81922701068E+01  0.63114990237E+03  0.64631489671E+03  0.12500045085E+03 0.  0.
         24    2    1    2    0    0  0.98658718617E+02  0.10885410541E+02  0.47758493886E+03  0.49436868241E+03  0.80380255008E+02 0.  0.
        -11    1    5    5    0    0  0.19382798204E+02 -0.31690245104E+02  0.16205399400E+03  0.16625721480E+03  0.00000000000E+00 0.  1.
         12    1    5    5    0    0  0.79275920414E+02  0.42575655646E+02  0.31553094486E+03  0.32811146761E+03  0.00000000000E+00 0. -1.
        -13    1    3    3    0    0 -0.98449149419E+00  0.23873798388E+02  0.72668349125E+00  0.23905136307E+02  0.00000000000E+00 0.  1.
         14    1    3    3    0    0  0.16721352852E+02 -0.59628841455E+02  0.13227582372E+02  0.63325913415E+02  0.00000000000E+00 0. -1.
          5    1    4    4  501    0 -0.97010258371E+02 -0.11044675190E+02  0.43555535914E+03  0.44638944427E+03  0.47000000000E+01 0. -1.
         -5    1    4    4    0  501  0.36342965317E+02  0.19236945296E+02  0.19559454323E+03  0.19992545244E+03  0.47000000000E+01 0. -1.
          1    1    1    2  502    0 -0.30541284364E+02  0.24712234074E+02 -0.36777896550E+03  0.36987137228E+03  0.00000000000E+00 0. -1.
          1    1    1    2  503    0 -0.23187002556E+02 -0.80348716547E+01  0.50345771459E+03  0.50405542020E+03  0.00000000000E+00 0. -1.
<mgrwt>
<rscale>  0 0.31054351E+02</rscale>
<asrwt>0</asrwt>
<pdfrwt beam="1">  1        2 0.24707421E+00 0.24539687E+02</pdfrwt>
<pdfrwt beam="2">  1        2 0.62020116E-01 0.39298492E+02</pdfrwt>
<totfact> 0.18496561E+02</totfact>
</mgrwt>
</event>
<event>
13    1  0.2101801E-008  0.9523735E+02  0.7546771E-02  0.1362659E+00
          2   -1    0    0  503    0  0.00000000000E+00  0.00000000000E+00  0.45764542461E+03  0.45764542461E+03  0.00000000000E+00 0. -1.
          2   -1    0    0  502    0 -0.00000000000E+00 -0.00000000000E+00 -0.27347464512E+04  0.27347464512E+04  0.00000000000E+00 0. -1.
         24    2    1    2    0    0  0.48819493935E+02  0.38785516462E+02 -0.12852521828E+04  0.12891764439E+04  0.78835720905E+02 0.  0.
         25    2    1    2    0    0 -0.20122793713E+03  0.15226781182E+03  0.18104935354E+03  0.33478331681E+03  0.12499132608E+03 0.  0.
         24    2    1    2    0    0  0.76625625026E+02 -0.11543081607E+03 -0.12172257133E+03  0.20070086611E+03  0.79175081780E+02 0.  0.
        -11    1    5    5    0    0  0.91122503024E+02 -0.11166268124E+03 -0.10543681825E+03  0.17857431949E+03  0.00000000000E+00 0.  1.
         12    1    5    5    0    0 -0.14496877997E+02 -0.37681348361E+01 -0.16285753083E+02  0.22126546619E+02  0.00000000000E+00 0. -1.
        -11    1    3    3    0    0 -0.16403366367E+02 -0.78712012591E+01 -0.15083385945E+03  0.15192721742E+03  0.00000000000E+00 0.  1.
         12    1    3    3    0    0  0.65222860303E+02  0.46656717721E+02 -0.11344183234E+04  0.11372492265E+04  0.00000000000E+00 0. -1.
          5    1    4    4  501    0 -0.17680665629E+03  0.15909140069E+03  0.11571285599E+03  0.26454153270E+03  0.47000000000E+01 0. -1.
         -5    1    4    4    0  501 -0.24421280846E+02 -0.68235888685E+01  0.65336497545E+02  0.70241784108E+02  0.47000000000E+01 0. -1.
          1    1    1    2  502    0  0.91135188833E+02 -0.27664697808E+02 -0.12035188853E+04  0.12072815187E+04  0.00000000000E+00 0. -1.
          1    1    1    2  503    0 -0.15352370661E+02 -0.47957814397E+02  0.15234325936E+03  0.16044973020E+03  0.00000000000E+00 0. -1.
<mgrwt>
<rscale>  0 0.69250970E+02</rscale>
<asrwt>0</asrwt>
<pdfrwt beam="1">  1        2 0.67300801E-01 0.50355211E+02</pdfrwt>
<pdfrwt beam="2">  1        2 0.40216858E+00 0.95237349E+02</pdfrwt>
<totfact> 0.45665429E+01</totfact>
</mgrwt>
</event>
<event>
13    1  0.2101801E-008  0.1078189E+03  0.7546771E-02  0.1343639E+00
         -1   -1    0    0    0  501  0.00000000000E+00  0.00000000000E+00  0.93160144977E+03  0.93160144977E+03  0.00000000000E+00 0.  1.
         -3   -1    0    0    0  502 -0.00000000000E+00 -0.00000000000E+00 -0.56059420628E+03  0.56059420628E+03  0.00000000000E+00 0.  1.
         24    2    1    2    0    0  0.79626230494E+02  0.35928486238E+02 -0.25363149054E+03  0.27994030984E+03  0.80040310917E+02 0.  0.
         25    2    1    2    0    0  0.18763131738E+02  0.72702567473E+02 -0.39626123416E+01  0.14585127795E+03  0.12497669604E+03 0.  0.
         24    2    1    2    0    0  0.97828798660E+01 -0.33880826922E+02 -0.57446691876E+02  0.10393629771E+03  0.79113945695E+02 0.  0.
        -11    1    3    3    0    0  0.40543326680E+02  0.57853547118E+02 -0.18441760726E+03  0.19748581751E+03  0.00000000000E+00 0.  1.
         12    1    3    3    0    0  0.39082903814E+02 -0.21925060881E+02 -0.69213883284E+02  0.82454492324E+02  0.00000000000E+00 0. -1.
        -11    1    5    5    0    0  0.41666481465E+02 -0.33292639081E+02 -0.26720434780E+02  0.59652972511E+02  0.00000000000E+00 0.  1.
         12    1    5    5    0    0 -0.31883601598E+02 -0.58818784130E+00 -0.30726257096E+02  0.44283325202E+02  0.00000000000E+00 0. -1.
          5    1    4    4  503    0 -0.28942827139E+02  0.63074540571E+02  0.39880612888E+02  0.80178788937E+02  0.47000000000E+01 0.  1.
         -5    1    4    4    0  503  0.47705958877E+02  0.96280269021E+01 -0.43843225229E+02  0.65672489011E+02  0.47000000000E+01 0.  1.
         -2    1    1    2    0  501 -0.51742441555E+02  0.74433368419E+01  0.80531945686E+03  0.80701431903E+03  0.00000000000E+00 0.  1.
         -4    1    1    2    0  502 -0.56429800544E+02 -0.82193563631E+02 -0.11927141861E+03  0.15545345152E+03  0.00000000000E+00 0.  1.
<mgrwt>
<rscale>  0 0.75074916E+02</rscale>
<asrwt>0</asrwt>
<pdfrwt beam="1">  1       -1 0.13700021E+00 0.52275076E+02</pdfrwt>
<pdfrwt beam="2">  1       -3 0.82440324E-01 0.10781894E+03</pdfrwt>
<totfact> 0.33284257E+00</totfact>
</mgrwt>
</event>
<event>
13    1  0.2101801E-008  0.1871895E+03  0.7546771E-02  0.1257362E+00
          2   -1    0    0  502    0  0.00000000000E+00  0.00000000000E+00  0.16927079395E+04  0.16927079395E+04  0.00000000000E+00 0. -1.
          2   -1    0    0  503    0 -0.00000000000E+00 -0.00000000000E+00 -0.13459363829E+04  0.13459363829E+04  0.00000000000E+00 0. -1.
         24    2    1    2    0    0  0.92986865922E+02  0.74464800489E+02 -0.54772012811E+03  0.56614048372E+03  0.79537065721E+02 0.  0.
         25    2    1    2    0    0  0.92380067386E+02 -0.20865263225E+03  0.21927104918E+03  0.34025658662E+03  0.12499901575E+03 0.  0.
         24    2    1    2    0    0 -0.14248944098E+03  0.18916379988E+02  0.41412389154E+03  0.44582620337E+03  0.81248605154E+02 0.  0.
        -11    1    3    3    0    0 -0.49370668424E+01  0.25950587283E+02 -0.19769838404E+03  0.19945540519E+03  0.00000000000E+00 0.  1.
         12    1    3    3    0    0  0.97923932765E+02  0.48514213206E+02 -0.35002174407E+03  0.36668507853E+03  0.00000000000E+00 0. -1.
        -11    1    5    5    0    0 -0.86615248260E+02 -0.21741489303E+02  0.29379388390E+03  0.30706634431E+03  0.00000000000E+00 0.  1.
         12    1    5    5    0    0 -0.55874192721E+02  0.40657869290E+02  0.12033000764E+03  0.13875985906E+03  0.00000000000E+00 0. -1.
          5    1    4    4  501    0  0.75993488305E+02 -0.20502839887E+03  0.14135026851E+03  0.26041052786E+03  0.47000000000E+01 0. -1.
         -5    1    4    4    0  501  0.16386579081E+02 -0.36242333761E+01  0.77920780662E+02  0.79846058767E+02  0.47000000000E+01 0. -1.
          1    1    1    2  502    0 -0.15288129710E+02 -0.64939050510E+02  0.96092393480E+03  0.96323705060E+03  0.00000000000E+00 0. -1.
          1    1    1    2  503    0 -0.27589362617E+02  0.18021050228E+03 -0.69982719077E+03  0.72318399803E+03  0.00000000000E+00 0. -1.
<mgrwt>
<rscale>  0 0.11175074E+03</rscale>
<asrwt>0</asrwt>
<pdfrwt beam="1">  1        2 0.24892764E+00 0.66714370E+02</pdfrwt>
<pdfrwt beam="2">  1        2 0.19793182E+00 0.18718947E+03</pdfrwt>
<totfact> 0.38201224E+01</totfact>
</mgrwt>
</event>
<event>
13    1  0.2101801E-008  0.1173927E+03  0.7546771E-02  0.1270514E+00
          2   -1    0    0  502    0  0.00000000000E+00  0.00000000000E+00  0.35518310346E+03  0.35518310346E+03  0.00000000000E+00 0. -1.
          2   -1    0    0  503    0 -0.00000000000E+00 -0.00000000000E+00 -0.14691898437E+04  0.14691898437E+04  0.00000000000E+00 0. -1.
         24    2    1    2    0    0  0.49766523585E+01 -0.48570054167E+02 -0.46848032061E+03  0.47784056915E+03  0.80461055821E+02 0.  0.
         25    2    1    2    0    0  0.14613444097E+02 -0.36218120654E+02 -0.18244435694E+03  0.22457968530E+03  0.12499914663E+03 0.  0.
         24    2    1    2    0    0  0.40519653878E+02 -0.26588282242E+02  0.16566583863E+03  0.18994799591E+03  0.79286139750E+02 0.  0.
        -11    1    3    3    0    0  0.39243812399E+02 -0.77288883300E+01 -0.23226401234E+03  0.23568280369E+03  0.00000000000E+00 0.  1.
         12    1    3    3    0    0 -0.34267160040E+02 -0.40841165837E+02 -0.23621630827E+03  0.24215776547E+03  0.00000000000E+00 0. -1.
        -11    1    5    5    0    0  0.25337782265E+02  0.26260767500E+02  0.82965038808E+02  0.90635692661E+02  0.00000000000E+00 0.  1.
         12    1    5    5    0    0  0.15181871612E+02 -0.52849049742E+02  0.82700799824E+02  0.99312303245E+02  0.00000000000E+00 0. -1.
          5    1    4    4  501    0 -0.53393493681E+02 -0.19750647100E+00 -0.67962782889E+02  0.86555958976E+02  0.47000000000E+01 0.  1.
         -5    1    4    4    0  501  0.68006937777E+02 -0.36020614183E+02 -0.11448157405E+03  0.13802372633E+03  0.47000000000E+01 0.  1.
          1    1    1    2  502    0 -0.43205779678E+02  0.20306083774E+03  0.76027551437E+02  0.22108964652E+03  0.00000000000E+00 0. -1.
          1    1    1    2  503    0 -0.16903970654E+02 -0.91684380672E+02 -0.70477545277E+03  0.71091505028E+03  0.00000000000E+00 0. -1.
<mgrwt>
<rscale>  0 0.10480008E+03</rscale>
<asrwt>0</asrwt>
<pdfrwt beam="1">  1        2 0.52232810E-01 0.11739273E+03</pdfrwt>
<pdfrwt beam="2">  1        2 0.21605733E+00 0.93558235E+02</pdfrwt>
<totfact> 0.24714379E+02</totfact>
</mgrwt>
</event>
<event>
13    1  0.2101801E-008  0.8361498E+02  0.7546771E-02  0.1429300E+00
          2   -1    0    0  503    0  0.00000000000E+00  0.00000000000E+00  0.24769282047E+04  0.24769282047E+04  0.00000000000E+00 0. -1.
         -1   -1    0    0    0  501 -0.00000000000E+00 -0.00000000000E+00 -0.81074269804E+03  0.81074269804E+03  0.00000000000E+00 0.  1.
         24    2    1    2    0    0 -0.10515916703E+02  0.29704892219E+03  0.27718443863E+03  0.41476860622E+03  0.82783675969E+02 0.  0.
         25    2    1    2    0    0 -0.10920669069E+00 -0.47270669955E+03  0.23654685281E+03  0.54316758998E+03  0.12499992601E+03 0.  0.
         24    2    1    2    0    0  0.29198379207E+02  0.82121834945E+02  0.14047488005E+04  0.14097951582E+04  0.81281327968E+02 0.  0.
        -11    1    5    5    0    0  0.51221231845E+01 -0.38997849613E+01  0.83569452152E+01  0.10549075883E+02  0.00000000000E+00 0.  1.
         12    1    5    5    0    0  0.24076256023E+02  0.86021619906E+02  0.13963918553E+04  0.13992460823E+04  0.00000000000E+00 0. -1.
        -13    1    3    3    0    0 -0.46082783854E+02  0.19071824739E+03  0.16880541447E+03  0.25882878667E+03  0.00000000000E+00 0.  1.
         14    1    3    3    0    0  0.35566867151E+02  0.10633067480E+03  0.10837902416E+03  0.15593981955E+03  0.00000000000E+00 0. -1.
          5    1    4    4  502    0 -0.11910808235E+01 -0.16521412645E+01 -0.10173862858E+02  0.11390598304E+02  0.47000000000E+01 0.  1.
         -5    1    4    4    0  502  0.10818741328E+01 -0.47105455828E+03  0.24672071567E+03  0.53177699167E+03  0.47000000000E+01 0.  1.
          1    1    1    2  503    0  0.25260305736E+02  0.22340886734E+02  0.32997723209E+03  0.33169590285E+03  0.00000000000E+00 0. -1.
         -2    1    1    2    0  501 -0.43833561549E+02  0.71195055681E+02 -0.58227181744E+03  0.58824364549E+03  0.00000000000E+00 0.  1.
<mgrwt>
<rscale>  0 0.53100802E+02</rscale>
<asrwt>0</asrwt>
<pdfrwt beam="1">  1        2 0.36425415E+00 0.33722370E+02</pdfrwt>
<pdfrwt beam="2">  1       -1 0.11922687E+00 0.83614976E+02</pdfrwt>
<totfact> 0.51373091E+00</totfact>
</mgrwt>
</event>
<event>
13    1  0.2101801E-008  0.7872258E+02  0.7546771E-02  0.1364395E+00
         -1   -1    0    0    0  501 -0.00000000000E+00  0.00000000000E+00  0.40360246740E+03  0.40360246740E+03  0.00000000000E+00 0.  1.
          2   -1    0    0  503    0  0.00000000000E+00 -0.00000000000E+00 -0.16427852607E+04  0.16427852607E+04  0.00000000000E+00 0. -1.
         24    2    1    2    0    0  0.40542540008E+02 -0.15118584895E+02 -0.11954434725E+03  0.15047573190E+03  0.80497364994E+02 0.  0.
         25    2    1    2    0    0  0.88307342420E+02  0.66168390314E+02  0.80594313923E+02  0.18519175951E+03  0.12499640695E+03 0.  0.
         24    2    1    2    0    0 -0.16132878409E+03  0.40942203621E+02 -0.71360154316E+03  0.73740113932E+03  0.82644039446E+02 0.  0.
        -11    1    5    5    0    0 -0.14408460693E+03  0.37064710817E+01 -0.57995460389E+03  0.59759639763E+03  0.00000000000E+00 0.  1.
         12    1    5    5    0    0 -0.17244177155E+02  0.37235732539E+02 -0.13364693927E+03  0.13980474169E+03  0.00000000000E+00 0. -1.
        -13    1    3    3    0    0  0.17732352596E+02  0.17136132541E+02 -0.91222788172E-01  0.24659515175E+02  0.00000000000E+00 0.  1.
         14    1    3    3    0    0  0.22810187412E+02 -0.32254717435E+02 -0.11945312446E+03  0.12581621672E+03  0.00000000000E+00 0. -1.
          5    1    4    4  502    0  0.84136511372E+02 -0.13410307994E+02  0.54326386569E+02  0.10115451144E+03  0.47000000000E+01 0.  1.
         -5    1    4    4    0  502  0.41708310483E+01  0.79578698309E+02  0.26267927354E+02  0.84037248073E+02  0.47000000000E+01 0.  1.
          1    1    1    2  503    0 -0.33858318256E+02 -0.49584005574E+02 -0.72232822699E+03  0.72481930633E+03  0.00000000000E+00 0. -1.
         -2    1    1    2    0  501  0.66337219916E+02 -0.42408003466E+02  0.23569701022E+03  0.24849979101E+03  0.00000000000E+00 0.  1.
<mgrwt>
<rscale>  0 0.68750324E+02</rscale>
<asrwt>0</asrwt>
<pdfrwt beam="2">  1        2 0.24158606E+00 0.60041313E+02</pdfrwt>
<pdfrwt beam="1">  1       -1 0.59353306E-01 0.78722578E+02</pdfrwt>
<totfact> 0.49662735E+01</totfact>
</mgrwt>
</event>
<event>
13    1  0.2101801E-008  0.1492349E+03  0.7546771E-02  0.1380487E+00
          2   -1    0    0  503    0  0.00000000000E+00  0.00000000000E+00  0.93926272635E+03  0.93926272635E+03  0.00000000000E+00 0. -1.
         -1   -1    0    0    0  501 -0.00000000000E+00 -0.00000000000E+00 -0.21584558452E+04  0.21584558452E+04  0.00000000000E+00 0.  1.
         24    2    1    2    0    0  0.71635060311E+02  0.13833756300E+02 -0.17457102559E+04  0.17491227067E+04  0.81258788878E+02 0.  0.
         25    2    1    2    0    0  0.16141394226E+03 -0.24884024121E+02  0.18256377787E+03  0.27500589743E+03  0.12500014087E+03 0.  0.
         24    2    1    2    0    0 -0.90142237272E+02  0.23627342493E+02  0.27358556409E+03  0.29984062138E+03  0.79821445068E+02 0.  0.
        -11    1    3    3    0    0  0.86735641859E+02  0.20134710035E+02 -0.12628142120E+04  0.12659495299E+04  0.00000000000E+00 0.  1.
         12    1    3    3    0    0 -0.15100581548E+02 -0.63009537357E+01 -0.48289604392E+03  0.48317317684E+03  0.00000000000E+00 0. -1.
        -11    1    5    5    0    0 -0.52041751651E+02 -0.22035274083E+02  0.18258068572E+03  0.19112719330E+03  0.00000000000E+00 0.  1.
         12    1    5    5    0    0 -0.38100485621E+02  0.45662616576E+02  0.91004878371E+02  0.10871342808E+03  0.00000000000E+00 0. -1.
          5    1    4    4  502    0  0.14564090518E+03 -0.64973557495E+02  0.12355795263E+03  0.20179567412E+03  0.47000000000E+01 0.  1.
         -5    1    4    4    0  502  0.15773037082E+02  0.40089533374E+02  0.59005825240E+02  0.73210223310E+02  0.47000000000E+01 0.  1.
          1    1    1    2  503    0 -0.16693781179E+03  0.12709456563E+01  0.40495401448E+03  0.43801552729E+03  0.00000000000E+00 0. -1.
         -2    1    1    2    0  501  0.24031046492E+02 -0.13848020328E+02 -0.33458621939E+03  0.33573381877E+03  0.00000000000E+00 0.  1.
<mgrwt>
<rscale>  0 0.64335902E+02</rscale>
<asrwt>0</asrwt>
<pdfrwt beam="1">  1        2 0.13812687E+00 0.14923494E+03</pdfrwt>
<pdfrwt beam="2">  1       -1 0.31741997E+00 0.27735516E+02</pdfrwt>
<totfact> 0.14820053E+00</totfact>
</mgrwt>
</event>
<event>
13    1  0.2101801E-008  0.1591620E+03  0.7546771E-02  0.1340919E+00
          2   -1    0    0  503    0  0.00000000000E+00  0.00000000000E+00  0.13456628572E+04  0.13456628572E+04  0.00000000000E+00 0. -1.
          2   -1    0    0  502    0 -0.00000000000E+00 -0.00000000000E+00 -0.20738925982E+04  0.20738925982E+04  0.00000000000E+00 0. -1.
         24    2    1    2    0    0  0.11418184588E+03  0.32519351125E+02 -0.97104448407E+02  0.17260483160E+03  0.79171660733E+02 0.  0.
         25    2    1    2    0    0 -0.19857876610E+03  0.90638674426E+02  0.38888554062E+02  0.25453262886E+03  0.12500257546E+03 0.  0.
         24    2    1    2    0    0  0.26087505956E+02  0.59072912030E+01 -0.46968427954E+03  0.47749125533E+03  0.81725898034E+02 0.  0.
        -11    1    3    3    0    0  0.14390910092E+02 -0.22691879443E+02 -0.84948203150E+01  0.28181228825E+02  0.00000000000E+00 0.  1.
         12    1    3    3    0    0  0.99790935789E+02  0.55211230568E+02 -0.88609628092E+02  0.14442360277E+03  0.00000000000E+00 0. -1.
        -13    1    5    5    0    0  0.10563993835E+02 -0.37606444896E+02 -0.24644686977E+03  0.24952335018E+03  0.00000000000E+00 0.  1.
         14    1    5    5    0    0  0.15523512122E+02  0.43513736099E+02 -0.22323740977E+03  0.22796790515E+03  0.00000000000E+00 0. -1.
          5    1    4    4  501    0 -0.20925997967E+03  0.71904614161E+02  0.14728181389E+02  0.22180852543E+03  0.47000000000E+01 0.  1.
         -5    1    4    4    0  501  0.10681213570E+02  0.18734060264E+02  0.24160372673E+02  0.32724103425E+02  0.47000000000E+01 0.  1.
          1    1    1    2  502    0  0.24303496331E+02  0.26900606015E+02 -0.13518794097E+04  0.13523654244E+04  0.00000000000E+00 0. -1.
          1    1    1    2  503    0  0.34005917930E+02 -0.15596592277E+03  0.11515498427E+04  0.11625613153E+04  0.00000000000E+00 0. -1.
<mgrwt>
<rscale>  0 0.75961506E+02</rscale>
<asrwt>0</asrwt>
<pdfrwt beam="1">  1        2 0.19789160E+00 0.15916203E+03</pdfrwt>
<pdfrwt beam="2">  1        2 0.30498420E+00 0.36253311E+02</pdfrwt>
<totfact> 0.27398854E+01</totfact>
</mgrwt>
</event>
<event>
13    1  0.2101801E-008  0.4344821E+02  0.7546771E-02  0.1540525E+00
          2   -1    0    0  502    0  0.00000000000E+00  0.00000000000E+00  0.23053809476E+04  0.23053809476E+04  0.00000000000E+00 0. -1.
          2   -1    0    0  503    0 -0.00000000000E+00 -0.00000000000E+00 -0.21003149875E+04  0.21003149875E+04  0.00000000000E+00 0. -1.
         24    2    1    2    0    0  0.60283039541E+03 -0.37280194392E+03  0.73562006116E+03  0.10241656888E+04  0.73435064551E+02 0.  0.
         25    2    1    2    0    0 -0.49209220752E+03  0.43048311348E+03 -0.13337999533E+03  0.67888666858E+03  0.12500573554E+03 0.  0.
         24    2    1    2    0    0 -0.17525122023E+03 -0.91918505858E+02 -0.46653158275E+01  0.21333676777E+03  0.79553814486E+02 0.  0.
        -11    1    3    3    0    0  0.26744979348E+03 -0.12812321751E+03  0.28154786113E+03  0.40891826690E+03  0.00000000000E+00 0.  1.
         12    1    3    3    0    0  0.33538060192E+03 -0.24467872642E+03  0.45407220003E+03  0.61524742189E+03  0.00000000000E+00 0. -1.
        -11    1    5    5    0    0 -0.50030944838E+02 -0.34994959374E+02  0.34747070053E+02  0.70250277581E+02  0.00000000000E+00 0.  1.
         12    1    5    5    0    0 -0.12522027539E+03 -0.56923546484E+02 -0.39412385880E+02  0.14308649019E+03  0.00000000000E+00 0. -1.
          5    1    4    4  501    0 -0.11667155760E+03  0.64505342956E+02  0.14328577797E+02  0.13416627656E+03  0.47000000000E+01 0.  1.
         -5    1    4    4    0  501 -0.37542064992E+03  0.36597777053E+03 -0.14770857313E+03  0.54472039202E+03  0.47000000000E+01 0.  1.
          1    1    1    2  502    0  0.27113064827E+02  0.12139336842E+02  0.10478610493E+04  0.10482820520E+04  0.00000000000E+00 0. -1.
          1    1    1    2  503    0  0.37399967515E+02  0.22097999454E+02 -0.14403698393E+04  0.14410247580E+04  0.00000000000E+00 0. -1.
<mgrwt>
<rscale>  0 0.35926292E+02</rscale>
<asrwt>0</asrwt>
<pdfrwt beam="1">  1        2 0.33902661E+00 0.29706595E+02</pdfrwt>
<pdfrwt beam="2">  1        2 0.30886985E+00 0.43448212E+02</pdfrwt>
<totfact> 0.10709990E+01</totfact>
</mgrwt>
</event>
<event>
13    1  0.2101801E-008  0.5203242E+02  0.7546771E-02  0.1451355E+00
          2   -1    0    0  502    0  0.00000000000E+00  0.00000000000E+00  0.32578942536E+04  0.32578942536E+04  0.00000000000E+00 0. -1.
          2   -1    0    0  503    0 -0.00000000000E+00 -0.00000000000E+00 -0.38647216091E+03  0.38647216091E+03  0.00000000000E+00 0. -1.
         24    2    1    2    0    0  0.61201874518E+02  0.13156365288E+02  0.13491345267E+03  0.16960602913E+03  0.81521813109E+02 0.  0.
         25    2    1    2    0    0  0.10859793500E+03 -0.34356599926E+03  0.63247774246E+03  0.73857254977E+03  0.12502083522E+03 0.  0.
         24    2    1    2    0    0 -0.16435938913E+03  0.30180163801E+03  0.15198839244E+04  0.15602048807E+04  0.78063361794E+02 0.  0.
        -11    1    5    5    0    0 -0.95999595109E+02  0.24612115709E+03  0.11520491084E+04  0.11819512234E+04  0.00000000000E+00 0.  1.
         12    1    5    5    0    0 -0.68359794024E+02  0.55680480916E+02  0.36783481599E+03  0.37825365729E+03  0.00000000000E+00 0. -1.
        -13    1    3    3    0    0  0.48515807378E+02 -0.29341843325E+02  0.90823559279E+02  0.10706841857E+03  0.00000000000E+00 0.  1.
         14    1    3    3    0    0  0.12686067141E+02  0.42498208613E+02  0.44089893394E+02  0.62537610558E+02  0.00000000000E+00 0. -1.
          5    1    4    4  501    0 -0.11611894385E+02 -0.10038774521E+03  0.24952094839E+03  0.26924956669E+03  0.47000000000E+01 0. -1.
         -5    1    4    4    0  501  0.12020982938E+03 -0.24317825404E+03  0.38295679407E+03  0.46932298308E+03  0.47000000000E+01 0. -1.
          1    1    1    2  502    0 -0.45753977743E+02 -0.43468458510E+01  0.87716817852E+03  0.87837141059E+03  0.00000000000E+00 0. -1.
          1    1    1    2  503    0  0.40313557361E+02  0.32954841810E+02 -0.29302120539E+03  0.29761154432E+03  0.00000000000E+00 0. -1.
<mgrwt>
<rscale>  0 0.48902045E+02</rscale>
<asrwt>0</asrwt>
<pdfrwt beam="1">  1        2 0.47910208E+00 0.45959999E+02</pdfrwt>
<pdfrwt beam="2">  1        2 0.56834143E-01 0.52032421E+02</pdfrwt>
<totfact> 0.32552280E+01</totfact>
</mgrwt>
</event>
<event>
13    1  0.2101801E-008  0.8340778E+02  0.7546771E-02  0.1435043E+00
          2   -1    0    0  503    0  0.00000000000E+00  0.00000000000E+00  0.84633119842E+03  0.84633119842E+03  0.00000000000E+00 0. -1.
          2   -1    0    0  502    0 -0.00000000000E+00 -0.00000000000E+00 -0.12247560019E+04  0.12247560019E+04  0.00000000000E+00 0. -1.
         24    2    1    2    0    0  0.15340561381E+03  0.11303364920E+03 -0.57227279698E+03  0.60866079735E+03  0.81620609286E+02 0.  0.
         25    2    1    2    0    0 -0.16763936499E+03 -0.31627806989E+03  0.30720617108E+03  0.48799168040E+03  0.12500189758E+03 0.  0.
         24    2    1    2    0    0 -0.36474345660E+02  0.10064116602E+03 -0.53412274563E+02  0.14401757113E+03  0.80182089842E+02 0.  0.
        -11    1    5    5    0    0 -0.48720672027E+02  0.68612624523E+02 -0.44845796744E+01  0.84270443108E+02  0.00000000000E+00 0.  1.
         12    1    5    5    0    0  0.12246326367E+02  0.32028541495E+02 -0.48927694889E+02  0.59747128023E+02  0.00000000000E+00 0. -1.
        -11    1    3    3    0    0  0.69110301526E+02  0.97686318765E+02 -0.37372132086E+03  0.39241110626E+03  0.00000000000E+00 0.  1.
         12    1    3    3    0    0  0.84295312286E+02  0.15347330439E+02 -0.19855147612E+03  0.21624969109E+03  0.00000000000E+00 0. -1.
          5    1    4    4  501    0 -0.15532019761E+00 -0.72347921829E+02  0.11220575896E+03  0.13359067430E+03  0.47000000000E+01 0. -1.
         -5    1    4    4    0  501 -0.16748404479E+03 -0.24393014806E+03  0.19500041213E+03  0.35440100610E+03  0.47000000000E+01 0. -1.
          1    1    1    2  502    0  0.20509419327E+02  0.25043972648E+02 -0.44008457314E+03  0.44127346211E+03  0.00000000000E+00 0. -1.
          1    1    1    2  503    0  0.30198677507E+02  0.77559282021E+02  0.38013867018E+03  0.38914368929E+03  0.00000000000E+00 0. -1.
<mgrwt>
<rscale>  0 0.51960905E+02</rscale>
<asrwt>0</asrwt>
<pdfrwt beam="1">  1        2 0.12446047E+00 0.83407783E+02</pdfrwt>
<pdfrwt beam="2">  1        2 0.18011118E+00 0.32370308E+02</pdfrwt>
<totfact> 0.13548971E+02</totfact>
</mgrwt>
</event>
<event>
13    1  0.2101801E-008  0.1210321E+03  0.7546771E-02  0.1348698E+00
          2   -1    0    0  502    0  0.00000000000E+00  0.00000000000E+00  0.30802779733E+04  0.30802779733E+04  0.00000000000E+00 0. -1.
          2   -1    0    0  503    0 -0.00000000000E+00 -0.00000000000E+00 -0.25190405157E+04  0.25190405157E+04  0.00000000000E+00 0. -1.
         24    2    1    2    0    0  0.12692310257E+03 -0.89357314453E+02 -0.39605182313E+02  0.17578374396E+03  0.72368159854E+02 0.  0.
         25    2    1    2    0    0 -0.32802425213E+03  0.26484906863E+02  0.77744150048E+03  0.85342758007E+03  0.12498794930E+03 0.  0.
         24    2    1    2    0    0  0.76130020094E+01  0.13410681066E+02 -0.53394124324E+02  0.10196273360E+03  0.85484866288E+02 0.  0.
        -11    1    3    3    0    0  0.89087531388E+02 -0.97957564515E+02 -0.28778189468E+02  0.13550076341E+03  0.00000000000E+00 0.  1.
         12    1    3    3    0    0  0.37835571186E+02  0.86002500621E+01 -0.10826992845E+02  0.40282980552E+02  0.00000000000E+00 0. -1.
        -13    1    5    5    0    0 -0.26005429239E+02 -0.92243522979E+01 -0.54859498146E+02  0.61407943802E+02  0.00000000000E+00 0.  1.
         14    1    5    5    0    0  0.33618431248E+02  0.22635033364E+02  0.14653738223E+01  0.40554789796E+02  0.00000000000E+00 0. -1.
          5    1    4    4  501    0 -0.20856630421E+03  0.70806092995E+02  0.55350221455E+03  0.59573500617E+03  0.47000000000E+01 0.  1.
         -5    1    4    4    0  501 -0.11945794792E+03 -0.44321186132E+02  0.22393928593E+03  0.25769257390E+03  0.47000000000E+01 0.  1.
          1    1    1    2  502    0  0.38240254523E+02  0.22933237346E+02  0.21695391438E+04  0.21699973150E+04  0.00000000000E+00 0. -1.
          1    1    1    2  503    0  0.15524789302E+03  0.26528489178E+02 -0.22927438801E+04  0.22981471164E+04  0.00000000000E+00 0. -1.
<mgrwt>
<rscale>  0 0.73462911E+02</rscale>
<asrwt>0</asrwt>
<pdfrwt beam="1">  1        2 0.45298206E+00 0.44589802E+02</pdfrwt>
<pdfrwt beam="2">  1        2 0.37044713E+00 0.12103214E+03</pdfrwt>
<totfact> 0.23311600E+00</totfact>
</mgrwt>
</event>
<event>
13    1  0.2101801E-008  0.7493590E+02  0.7546771E-02  0.1414998E+00
         -3   -1    0    0    0  501 -0.00000000000E+00  0.00000000000E+00  0.41336274289E+03  0.41336274289E+03  0.00000000000E+00 0.  1.
          2   -1    0    0  503    0  0.00000000000E+00 -0.00000000000E+00 -0.34151648892E+04  0.34151648892E+04  0.00000000000E+00 0. -1.
         24    2    1    2    0    0  0.14681419004E+03 -0.61947671981E+02 -0.18561049845E+02  0.17956913993E+03  0.80676161178E+02 0.  0.
         25    2    1    2    0    0 -0.30970032161E+03  0.81039869378E+02  0.64799298562E+02  0.34972168085E+03  0.12499822130E+03 0.  0.
         24    2    1    2    0    0  0.62362890387E+02 -0.11544235274E+02 -0.21378199965E+04  0.21407052537E+04  0.91226346187E+02 0.  0.
        -13    1    5    5    0    0  0.16390813033E+02 -0.62235098312E+01 -0.63692649808E+02  0.66061671687E+02  0.00000000000E+00 0.  1.
         14    1    5    5    0    0  0.45972077353E+02 -0.53207254426E+01 -0.20741273467E+04  0.20746435820E+04  0.00000000000E+00 0. -1.
        -13    1    3    3    0    0  0.10495814374E+03 -0.19350162242E+01 -0.17293603097E+02  0.10639090625E+03  0.00000000000E+00 0.  1.
         14    1    3    3    0    0  0.41856046304E+02 -0.60012655757E+02 -0.12674467474E+01  0.73178233679E+02  0.00000000000E+00 0. -1.
          5    1    4    4  502    0 -0.13363617440E+03  0.99231237563E+02  0.35320227257E+02  0.17022066288E+03  0.47000000000E+01 0. -1.
         -5    1    4    4    0  502 -0.17606414720E+03 -0.18191368185E+02  0.29479071305E+02  0.17950101797E+03  0.47000000000E+01 0. -1.
          1    1    1    2  503    0  0.29182779332E+02 -0.30189821212E+02 -0.10226254321E+04  0.10234870953E+04  0.00000000000E+00 0. -1.
         -4    1    1    2    0  501  0.71340461845E+02  0.22641859089E+02  0.11240503346E+03  0.13504446241E+03  0.00000000000E+00 0.  1.
<mgrwt>
<rscale>  0 0.56093396E+02</rscale>
<asrwt>0</asrwt>
<pdfrwt beam="2">  1        2 0.50223012E+00 0.41988807E+02</pdfrwt>
<pdfrwt beam="1">  1       -3 0.60788640E-01 0.74935900E+02</pdfrwt>
<totfact> 0.31918027E+00</totfact>
</mgrwt>
</event>
<event>
13    1  0.2101801E-008  0.1215567E+03  0.7546771E-02  0.1249349E+00
          2   -1    0    0  502    0  0.00000000000E+00  0.00000000000E+00  0.59883685322E+04  0.59883685322E+04  0.00000000000E+00 0. -1.
          2   -1    0    0  503    0 -0.00000000000E+00 -0.00000000000E+00 -0.20390768279E+04  0.20390768279E+04  0.00000000000E+00 0. -1.
         24    2    1    2    0    0  0.15163222751E+03  0.29342489228E+02 -0.14860138127E+03  0.22898286706E+03  0.80606878110E+02 0.  0.
         25    2    1    2    0    0 -0.54226215963E+02 -0.13904870765E+03  0.72862878661E+03  0.75418837563E+03  0.12500068667E+03 0.  0.
         24    2    1    2    0    0 -0.89909302141E+02  0.51667360330E+02 -0.80434406722E+03  0.81492991270E+03  0.79926124600E+02 0.  0.
        -11    1    5    5    0    0  0.14020712998E+02  0.13267330535E+02 -0.15556198700E+03  0.15675501349E+03  0.00000000000E+00 0.  1.
         12    1    5    5    0    0 -0.10393001514E+03  0.38400029795E+02 -0.64878208022E+03  0.65817489921E+03  0.00000000000E+00 0. -1.
        -13    1    3    3    0    0  0.10403779316E+03  0.29925117976E+02 -0.49484935960E+02  0.11902997093E+03  0.00000000000E+00 0.  1.
         14    1    3    3    0    0  0.47594434346E+02 -0.58262874741E+00 -0.99116445313E+02  0.10995289614E+03  0.00000000000E+00 0. -1.
          5    1    4    4  501    0 -0.19650824718E+02 -0.14249122781E+03  0.67459243836E+03  0.68977311690E+03  0.47000000000E+01 0.  1.
         -5    1    4    4    0  501 -0.34575391245E+02  0.34425201603E+01  0.54036348254E+02  0.64415258731E+02  0.47000000000E+01 0.  1.
          1    1    1    2  502    0  0.10905564185E+03  0.21975706123E+02  0.51972585803E+04  0.51984490779E+04  0.00000000000E+00 0. -1.
          1    1    1    2  503    0 -0.11655235126E+03  0.36063151965E+02 -0.10236502142E+04  0.10308951268E+04  0.00000000000E+00 0. -1.
<mgrwt>
<rscale>  0 0.11628806E+03</rscale>
<asrwt>0</asrwt>
<pdfrwt beam="1">  1        2 0.88064243E+00 0.11124776E+03</pdfrwt>
<pdfrwt beam="2">  1        2 0.29986424E+00 0.12155671E+03</pdfrwt>
<totfact> 0.64023430E-03</totfact>
</mgrwt>
</event>
<event>
13    1  0.2101801E-008  0.2025958E+03  0.7546771E-02  0.1291730E+00
          2   -1    0    0  503    0  0.00000000000E+00  0.00000000000E+00  0.20079466240E+04  0.20079466240E+04  0.00000000000E+00 0. -1.
          2   -1    0    0  502    0 -0.00000000000E+00 -0.00000000000E+00 -0.35557161710E+04  0.35557161710E+04  0.00000000000E+00 0. -1.
         24    2    1    2    0    0 -0.11617393275E+02 -0.50406273789E+02 -0.59134410692E+03  0.59904693802E+03  0.80583031086E+02 0.  0.
         25    2    1    2    0    0 -0.41868098886E+03  0.26622290951E+03  0.38472086951E+03  0.64015874283E+03  0.12499864243E+03 0.  0.
         24    2    1    2    0    0  0.83354988667E+02  0.59741194496E+02 -0.21489791342E+02  0.13210851663E+03  0.80459832090E+02 0.  0.
        -13    1    5    5    0    0  0.29577637205E+02  0.63022911528E+02  0.90070581618E+01  0.70198654523E+02  0.00000000000E+00 0.  1.
         14    1    5    5    0    0  0.53777351462E+02 -0.32817170328E+01 -0.30496849503E+02  0.61909862111E+02  0.00000000000E+00 0. -1.
        -13    1    3    3    0    0  0.10758507769E+02 -0.40562404211E+02 -0.54533118951E+03  0.54694347091E+03  0.00000000000E+00 0.  1.
         14    1    3    3    0    0 -0.22375901044E+02 -0.98438695785E+01 -0.46012917412E+02  0.52103467107E+02  0.00000000000E+00 0. -1.
          5    1    4    4  501    0 -0.55390715370E+02  0.38099476904E+02  0.11536411501E+03  0.13360640150E+03  0.47000000000E+01 0.  1.
         -5    1    4    4    0  501 -0.36329027349E+03  0.22812343261E+03  0.26935675450E+03  0.50655234134E+03  0.47000000000E+01 0.  1.
          1    1    1    2  502    0  0.30469732668E+03 -0.26216902771E+03 -0.27409988899E+04  0.27703155009E+04  0.00000000000E+00 0. -1.
          1    1    1    2  503    0  0.42246066783E+02 -0.13388802507E+02  0.14213423717E+04  0.14220330966E+04  0.00000000000E+00 0. -1.
<mgrwt>
<rscale>  0 0.94754544E+02</rscale>
<asrwt>0</asrwt>
<pdfrwt beam="1">  1        2 0.29528627E+00 0.44316929E+02</pdfrwt>
<pdfrwt beam="2">  1        2 0.52289944E+00 0.20259580E+03</pdfrwt>
<totfact> 0.19259411E+00</totfact>
</mgrwt>
</event>
<event>
13    1  0.2101801E-008  0.5520063E+02  0.7546771E-02  0.1460378E+00
          2   -1    0    0  503    0  0.00000000000E+00  0.00000000000E+00  0.12981427662E+04  0.12981427662E+04  0.00000000000E+00 0. -1.
          2   -1    0    0  502    0 -0.00000000000E+00 -0.00000000000E+00 -0.12881998765E+04  0.12881998765E+04  0.00000000000E+00 0. -1.
         24    2    1    2    0    0  0.32814116238E+02  0.76914741557E+02 -0.13977103924E+03  0.17388646429E+03  0.60892654400E+02 0.  0.
         25    2    1    2    0    0 -0.56627383451E+02 -0.61919541581E+02  0.22702420127E+03  0.27241658005E+03  0.12502045808E+03 0.  0.
         24    2    1    2    0    0  0.28459354284E+02 -0.34001827671E+00 -0.37237191581E+03  0.38199884753E+03  0.80325745350E+02 0.  0.
        -11    1    3    3    0    0 -0.12006591484E+02  0.12032003634E+02 -0.57353436934E+02  0.59819261770E+02  0.00000000000E+00 0.  1.
         12    1    3    3    0    0  0.44820707722E+02  0.64882737923E+02 -0.82417602310E+02  0.11406720252E+03  0.00000000000E+00 0. -1.
        -11    1    5    5    0    0  0.31949926965E+02  0.25149083292E+02 -0.32950569105E+03  0.33200493168E+03  0.00000000000E+00 0.  1.
         12    1    5    5    0    0 -0.34905726816E+01 -0.25489101569E+02 -0.42866224762E+02  0.49993915847E+02  0.00000000000E+00 0. -1.
          5    1    4    4  501    0 -0.38778556207E+02 -0.95586976411E+02  0.20118264879E+03  0.22613534588E+03  0.47000000000E+01 0. -1.
         -5    1    4    4    0  501 -0.17848827244E+02  0.33667434830E+02  0.25841552481E+02  0.46281234174E+02  0.47000000000E+01 0. -1.
          1    1    1    2  502    0 -0.28513412629E+02 -0.47447465121E+02 -0.73004068788E+03  0.73213638251E+03  0.00000000000E+00 0. -1.
          1    1    1    2  503    0  0.23867325558E+02  0.32792283422E+02  0.10251023314E+04  0.10259043683E+04  0.00000000000E+00 0. -1.
<mgrwt>
<rscale>  0 0.47316476E+02</rscale>
<asrwt>0</asrwt>
<pdfrwt beam="1">  1        2 0.19090335E+00 0.40558391E+02</pdfrwt>
<pdfrwt beam="2">  1        2 0.18944116E+00 0.55200635E+02</pdfrwt>
<totfact> 0.71507286E+01</totfact>
</mgrwt>
</event>
<event>
13    1  0.2101801E-008  0.1309345E+03  0.7546771E-02  0.1337575E+00
          2   -1    0    0  502    0  0.00000000000E+00  0.00000000000E+00  0.14535880059E+04  0.14535880059E+04  0.00000000000E+00 0. -1.
          2   -1    0    0  503    0 -0.00000000000E+00 -0.00000000000E+00 -0.32262674250E+04  0.32262674250E+04  0.00000000000E+00 0. -1.
         24    2    1    2    0    0 -0.42615338566E+02  0.15874319852E+03 -0.21203831161E+03  0.27789693198E+03  0.72463708576E+02 0.  0.
         25    2    1    2    0    0  0.14299497210E+03 -0.43072854671E+03 -0.46379095809E+02  0.47302729641E+03  0.12501663739E+03 0.  0.
         24    2    1    2    0    0 -0.19374412421E+03  0.36469878787E+03 -0.92832071265E+03  0.10192632095E+04  0.81093484645E+02 0.  0.
        -11    1    5    5    0    0 -0.18284624810E+03  0.29640341476E+03 -0.72087058998E+03  0.80058862234E+03  0.00000000000E+00 0.  1.
         12    1    5    5    0    0 -0.10897876115E+02  0.68295373116E+02 -0.20745012267E+03  0.21867458720E+03  0.00000000000E+00 0. -1.
        -13    1    3    3    0    0 -0.53098197052E+02  0.96024668333E+02 -0.16758070150E+03  0.20030837969E+03  0.00000000000E+00 0.  1.
         14    1    3    3    0    0  0.10482858486E+02  0.62718530186E+02 -0.44457610101E+02  0.77588552291E+02  0.00000000000E+00 0. -1.
          5    1    4    4  501    0  0.14389129019E+03 -0.27687981655E+03  0.67297713124E+00  0.31207319510E+03  0.47000000000E+01 0.  1.
         -5    1    4    4    0  501 -0.89631809239E+00 -0.15384873016E+03 -0.47052072940E+02  0.16095410130E+03  0.47000000000E+01 0.  1.
          1    1    1    2  502    0  0.55965254285E+02 -0.11839099950E+03  0.11578775334E+04  0.11652591647E+04  0.00000000000E+00 0. -1.
          1    1    1    2  503    0  0.37399236393E+02  0.25677559815E+02 -0.17438188324E+04  0.17444088283E+04  0.00000000000E+00 0. -1.
<mgrwt>
<rscale>  0 0.77070903E+02</rscale>
<asrwt>0</asrwt>
<pdfrwt beam="1">  1        2 0.21376294E+00 0.13093447E+03</pdfrwt>
<pdfrwt beam="2">  1        2 0.47445109E+00 0.45365625E+02</pdfrwt>
<totfact> 0.64542541E+00</totfact>
</mgrwt>
</event>
<event>
13    1  0.2101801E-008  0.9106067E+02  0.7546771E-02  0.1375305E+00
         -1   -1    0    0    0  501 -0.00000000000E+00  0.00000000000E+00  0.57986196834E+03  0.57986196834E+03  0.00000000000E+00 0.  1.
          2   -1    0    0  503    0  0.00000000000E+00 -0.00000000000E+00 -0.51912594412E+04  0.51912594412E+04  0.00000000000E+00 0. -1.
         24    2    1    2    0    0  0.30454109324E+03  0.81699304929E+02 -0.47738918352E+03  0.57789477504E+03  0.81497758151E+02 0.  0.
         25    2    1    2    0    0 -0.15957270537E+03 -0.21778635380E+03 -0.56853956199E+03  0.64167941415E+03  0.12498357012E+03 0.  0.
         24    2    1    2    0    0 -0.18456327681E+03  0.17093972383E+03 -0.38055698685E+03  0.46571147142E+03  0.93699317200E+02 0.  0.
        -11    1    5    5    0    0 -0.35284821159E+02  0.91302599111E+02 -0.11733686697E+03  0.15280420007E+03  0.00000000000E+00 0.  1.
         12    1    5    5    0    0 -0.14927845565E+03  0.79637124715E+02 -0.26322011988E+03  0.31290727135E+03  0.00000000000E+00 0. -1.
        -13    1    3    3    0    0  0.10324301457E+03  0.56657930579E+02 -0.22624997332E+03  0.25506526926E+03  0.00000000000E+00 0.  1.
         14    1    3    3    0    0  0.20129807867E+03  0.25041374350E+02 -0.25113921020E+03  0.32282950578E+03  0.00000000000E+00 0. -1.
          5    1    4    4  502    0 -0.10857957086E+03 -0.17139295789E+03 -0.28521088011E+03  0.35004629030E+03  0.47000000000E+01 0.  1.
         -5    1    4    4    0  502 -0.50993134507E+02 -0.46393395915E+02 -0.28332868188E+03  0.29163312385E+03  0.47000000000E+01 0.  1.
          1    1    1    2  503    0  0.86617282485E+02 -0.28701769852E+02 -0.36335512374E+04  0.36346968154E+04  0.00000000000E+00 0. -1.
         -2    1    1    2    0  501 -0.47022393539E+02 -0.61509051031E+01  0.44863949691E+03  0.45113893349E+03  0.00000000000E+00 0.  1.
<mgrwt>
<rscale>  0 0.65714295E+02</rscale>
<asrwt>0</asrwt>
<pdfrwt beam="2">  1        2 0.76342051E+00 0.91060672E+02</pdfrwt>
<pdfrwt beam="1">  1       -1 0.85273818E-01 0.47422981E+02</pdfrwt>
<totfact> 0.13184416E-01</totfact>
</mgrwt>
</event>
<event>
13    1  0.2101801E-008  0.8032171E+02  0.7546771E-02  0.1439377E+00
          2   -1    0    0  502    0  0.00000000000E+00  0.00000000000E+00  0.19099302598E+04  0.19099302598E+04  0.00000000000E+00 0. -1.
          2   -1    0    0  503    0 -0.00000000000E+00 -0.00000000000E+00 -0.25880537493E+04  0.25880537493E+04  0.00000000000E+00 0. -1.
         24    2    1    2    0    0 -0.17232860751E+03 -0.96202722477E+02 -0.62454255267E+03  0.66230832636E+03  0.98218156579E+02 0.  0.
         25    2    1    2    0    0  0.19507877587E+03  0.76565238965E+02  0.25049313315E+03  0.34970032692E+03  0.12500217709E+03 0.  0.
         24    2    1    2    0    0  0.99346850712E+01 -0.33642426682E+02 -0.55458855560E+03  0.56164373757E+03  0.81515097436E+02 0.  0.
        -11    1    5    5    0    0  0.34622556528E+02  0.44619311221E+01 -0.12899157934E+03  0.13363179932E+03  0.00000000000E+00 0.  1.
         12    1    5    5    0    0 -0.24687871456E+02 -0.38104357804E+02 -0.42559697627E+03  0.42801193825E+03  0.00000000000E+00 0. -1.
        -11    1    3    3    0    0 -0.14430871389E+03 -0.80932761553E+02 -0.36424319905E+03  0.40006027652E+03  0.00000000000E+00 0.  1.
         12    1    3    3    0    0 -0.28019893627E+02 -0.15269960924E+02 -0.26029935362E+03  0.26224804983E+03  0.00000000000E+00 0. -1.
          5    1    4    4  501    0  0.27468009158E+02 -0.31438373013E+02  0.26005442567E+02  0.49408864264E+02  0.47000000000E+01 0.  1.
         -5    1    4    4    0  501  0.16761076672E+03  0.10800361198E+03  0.22448769059E+03  0.30029146266E+03  0.47000000000E+01 0.  1.
          1    1    1    2  502    0  0.16445189130E+02 -0.28077021722E+02  0.15855668167E+04  0.15859006569E+04  0.00000000000E+00 0. -1.
          1    1    1    2  503    0 -0.49130042560E+02  0.81356931916E+02 -0.13350523311E+04  0.13384309614E+04  0.00000000000E+00 0. -1.
<mgrwt>
<rscale>  0 0.51122984E+02</rscale>
<asrwt>0</asrwt>
<pdfrwt beam="1">  1        2 0.28087210E+00 0.32538645E+02</pdfrwt>
<pdfrwt beam="2">  1        2 0.38059614E+00 0.80321707E+02</pdfrwt>
<totfact> 0.86423806E+00</totfact>
</mgrwt>
</event>
<event>
13    1  0.2101801E-008  0.1594213E+03  0.7546771E-02  0.1263194E+00
          2   -1    0    0  502    0  0.00000000000E+00  0.00000000000E+00  0.12362816196E+04  0.12362816196E+04  0.00000000000E+00 0. -1.
          2   -1    0    0  503    0 -0.00000000000E+00 -0.00000000000E+00 -0.85182934368E+03  0.85182934368E+03  0.00000000000E+00 0. -1.
         24    2    1    2    0    0 -0.10544055159E+02 -0.11367899331E+03 -0.31981109535E+03  0.34927044039E+03  0.81710545259E+02 0.  0.
         25    2    1    2    0    0  0.72851851878E+02  0.20565072924E+03  0.21967260702E+03  0.33388889832E+03  0.12500450948E+03 0.  0.
         24    2    1    2    0    0 -0.83272349458E+02 -0.12490078177E+02 -0.19137883951E+03  0.22426397433E+03  0.81106003072E+02 0.  0.
        -11    1    3    3    0    0 -0.16028130438E+02 -0.24478718500E+02 -0.18646373416E+03  0.18874541791E+03  0.00000000000E+00 0.  1.
         12    1    3    3    0    0  0.54840752792E+01 -0.89200274813E+02 -0.13334736118E+03  0.16052502248E+03  0.00000000000E+00 0. -1.
        -11    1    5    5    0    0  0.54231766815E+01 -0.24243358312E+02 -0.63561161185E+02  0.68243479386E+02  0.00000000000E+00 0.  1.
         12    1    5    5    0    0 -0.88695526139E+02  0.11753280134E+02 -0.12781767832E+03  0.15602049495E+03  0.00000000000E+00 0. -1.
          5    1    4    4  501    0 -0.25456338831E+02  0.29026411057E+01  0.24200560954E+02  0.35555698032E+02  0.47000000000E+01 0.  1.
         -5    1    4    4    0  501  0.98308190709E+02  0.20274808813E+03  0.19547204606E+03  0.29833320029E+03  0.47000000000E+01 0.  1.
          1    1    1    2  502    0  0.24994721661E+02 -0.15334514050E+03  0.91622350691E+03  0.92930349340E+03  0.00000000000E+00 0. -1.
          1    1    1    2  503    0 -0.40301689218E+01  0.73863482751E+02 -0.24025390313E+03  0.25138415685E+03  0.00000000000E+00 0. -1.
<mgrwt>
<rscale>  0 0.10859525E+03</rscale>
<asrwt>0</asrwt>
<pdfrwt beam="1">  1        2 0.18180612E+00 0.15942132E+03</pdfrwt>
<pdfrwt beam="2">  1        2 0.12526902E+00 0.73973349E+02</pdfrwt>
<totfact> 0.12035567E+02</totfact>
</mgrwt>
</event>
<event>
13    1  0.2101801E-008  0.2302196E+03  0.7546771E-02  0.1230209E+00
          2   -1    0    0  503    0  0.00000000000E+00  0.00000000000E+00  0.18451024726E+04  0.18451024726E+04  0.00000000000E+00 0. -1.
          2   -1    0    0  502    0 -0.00000000000E+00 -0.00000000000E+00 -0.16266697103E+04  0.16266697103E+04  0.00000000000E+00 0. -1.
         24    2    1    2    0    0  0.67043257042E+02  0.19207228066E+03 -0.42263907029E+03  0.47542116395E+03  0.77556044813E+02 0.  0.
         25    2    1    2    0    0 -0.35619309608E+02  0.95651494666E+02  0.39179755901E+03  0.42373152115E+03  0.12500052451E+03 0.  0.
         24    2    1    2    0    0 -0.55304351811E+02 -0.43342534508E+02  0.77234194420E+02  0.13136439404E+03  0.79714092908E+02 0.  0.
        -11    1    3    3    0    0  0.30658714176E+02  0.12907115169E+02 -0.88356031480E+02  0.94410479693E+02  0.00000000000E+00 0.  1.
         12    1    3    3    0    0  0.36384542865E+02  0.17916516549E+03 -0.33428303881E+03  0.38101068426E+03  0.00000000000E+00 0. -1.
        -13    1    5    5    0    0 -0.45824064254E+02 -0.46190206348E+02  0.12972844128E+02  0.66345118223E+02  0.00000000000E+00 0.  1.
         14    1    5    5    0    0 -0.94802875564E+01  0.28476718400E+01  0.64261350291E+02  0.65019275821E+02  0.00000000000E+00 0. -1.
          5    1    4    4  501    0 -0.75868476246E+01 -0.28079978047E+02  0.12273044027E+03  0.12621765484E+03  0.47000000000E+01 0. -1.
         -5    1    4    4    0  501 -0.28032461984E+02  0.12373147271E+03  0.26906711873E+03  0.29751386631E+03  0.47000000000E+01 0. -1.
          1    1    1    2  502    0 -0.47310587981E+02 -0.23966162800E+03 -0.11204632044E+04  0.11467841035E+04  0.00000000000E+00 0. -1.
          1    1    1    2  503    0  0.71190992359E+02 -0.47196128220E+01  0.12925032837E+04  0.12944710002E+04  0.00000000000E+00 0. -1.
<mgrwt>
<rscale>  0 0.12816214E+03</rscale>
<asrwt>0</asrwt>
<pdfrwt beam="1">  1        2 0.27133860E+00 0.71347264E+02</pdfrwt>
<pdfrwt beam="2">  1        2 0.23921613E+00 0.23021955E+03</pdfrwt>
<totfact> 0.22718361E+01</totfact>
</mgrwt>
</event>
<event>
13    1  0.2101801E-008  0.2541255E+03  0.7546771E-02  0.1282316E+00
          2   -1    0    0  503    0  0.00000000000E+00  0.00000000000E+00  0.35217305658E+04  0.35217305658E+04  0.00000000000E+00 0. -1.
          2   -1    0    0  502    0 -0.00000000000E+00 -0.00000000000E+00 -0.17359896276E+04  0.17359896276E+04  0.00000000000E+00 0. -1.
         24    2    1    2    0    0 -0.27285424426E+03 -0.18432481005E+03 -0.21231415800E+03  0.39996194618E+03  0.80418794408E+02 0.  0.
         25    2    1    2    0    0 -0.11116104224E+03  0.27363671660E+02  0.60514513992E+03  0.62843569778E+03  0.12500095214E+03 0.  0.
         24    2    1    2    0    0  0.38580106078E+03  0.39155100562E+03 -0.60401975989E+03  0.82230947745E+03  0.95908069851E+02 0.  0.
        -13    1    3    3    0    0 -0.12963449029E+03 -0.11039120874E+03 -0.15079502988E+03  0.22744331398E+03  0.00000000000E+00 0.  1.
         14    1    3    3    0    0 -0.14321975398E+03 -0.73933601307E+02 -0.61519128126E+02  0.17251863220E+03  0.00000000000E+00 0. -1.
        -13    1    5    5    0    0  0.29413353667E+03  0.24179072119E+03 -0.38340628098E+03  0.54034957809E+03  0.00000000000E+00 0.  1.
         14    1    5    5    0    0  0.91667524110E+02  0.14976028443E+03 -0.22061347891E+03  0.28195989936E+03  0.00000000000E+00 0. -1.
          5    1    4    4  501    0  0.10854024233E+02  0.28279976131E+02  0.40806686335E+02  0.51037658074E+02  0.47000000000E+01 0.  1.
         -5    1    4    4    0  501 -0.12201506647E+03 -0.91630447052E+00  0.56433845358E+03  0.57739803970E+03  0.47000000000E+01 0.  1.
          1    1    1    2  502    0 -0.34240038462E+02  0.17826924224E+02 -0.69851494711E+03  0.69958081077E+03  0.00000000000E+00 0. -1.
          1    1    1    2  503    0  0.32454264186E+02 -0.25241679146E+03  0.26954446633E+04  0.27074322611E+04  0.00000000000E+00 0. -1.
<mgrwt>
<rscale>  0 0.99045276E+02</rscale>
<asrwt>0</asrwt>
<pdfrwt beam="1">  1        2 0.51790156E+00 0.25412550E+03</pdfrwt>
<pdfrwt beam="2">  1        2 0.25529259E+00 0.38602843E+02</pdfrwt>
<totfact> 0.26356877E+00</totfact>
</mgrwt>
</event>
<event>
13    1  0.2101801E-008  0.5519276E+02  0.7546771E-02  0.1452218E+00
          2   -1    0    0  503    0  0.00000000000E+00  0.00000000000E+00  0.25736212264E+04  0.25736212264E+04  0.00000000000E+00 0. -1.
         -1   -1    0    0    0  501 -0.00000000000E+00 -0.00000000000E+00 -0.56643086437E+03  0.56643086437E+03  0.00000000000E+00 0.  1.
         24    2    1    2    0    0  0.36425614771E+02  0.23220528086E+02 -0.28789373641E+03  0.30235985253E+03  0.81686342953E+02 0.  0.
         25    2    1    2    0    0 -0.28526864892E+03  0.20208991176E+03  0.10636152621E+04  0.11265527146E+04  0.12500023363E+03 0.  0.
         24    2    1    2    0    0  0.18879154214E+03 -0.17700534692E+03  0.84608073480E+03  0.88853154070E+03  0.81624443604E+02 0.  0.
        -11    1    5    5    0    0  0.46561207157E+01  0.86721920031E+01  0.28914705329E+02  0.30544173888E+02  0.00000000000E+00 0.  1.
         12    1    5    5    0    0  0.18413542143E+03 -0.18567753892E+03  0.81716602948E+03  0.85798736681E+03  0.00000000000E+00 0. -1.
        -13    1    3    3    0    0  0.33130970421E+02  0.51572806267E+02 -0.16048514661E+03  0.17179318331E+03  0.00000000000E+00 0.  1.
         14    1    3    3    0    0  0.32946443506E+01 -0.28352278181E+02 -0.12740858979E+03  0.13056666923E+03  0.00000000000E+00 0. -1.
          5    1    4    4  502    0 -0.94811766169E+02  0.75965355040E+01  0.21030671782E+03  0.23086356125E+03  0.47000000000E+01 0.  1.
         -5    1    4    4    0  502 -0.19045688275E+03  0.19449337625E+03  0.85330854433E+03  0.89568915334E+03  0.47000000000E+01 0.  1.
          1    1    1    2  503    0  0.51563841058E+01 -0.42744710270E+02  0.59973244959E+03  0.60127590143E+03  0.00000000000E+00 0. -1.
         -2    1    1    2    0  501  0.54895107897E+02 -0.55603826506E+01 -0.21434434812E+03  0.22133208149E+03  0.00000000000E+00 0.  1.
<mgrwt>
<rscale>  0 0.48747330E+02</rscale>
<asrwt>0</asrwt>
<pdfrwt beam="1">  1        2 0.37847370E+00 0.43054600E+02</pdfrwt>
<pdfrwt beam="2">  1       -1 0.83298658E-01 0.55192760E+02</pdfrwt>
<totfact> 0.98366410E+00</totfact>
</mgrwt>
</event>
<event>
13    1  0.2101801E-008  0.5933191E+02  0.7546771E-02  0.1486725E+00
          2   -1    0    0  503    0  0.00000000000E+00  0.00000000000E+00  0.29229543864E+04  0.29229543864E+04  0.00000000000E+00 0. -1.
          2   -1    0    0  502    0 -0.00000000000E+00 -0.00000000000E+00 -0.23063531926E+04  0.23063531926E+04  0.00000000000E+00 0. -1.
         24    2    1    2    0    0  0.30068233813E+02  0.38849994110E+02 -0.10609981441E+04  0.10650906230E+04  0.79294090793E+02 0.  0.
         25    2    1    2    0    0 -0.15846474457E+02 -0.25938468171E+03 -0.37192851139E+03  0.47062137585E+03  0.12498855134E+03 0.  0.
         24    2    1    2    0    0  0.76214181610E+02  0.22346063523E+03  0.15673275900E+04  0.15871455599E+04  0.82292145346E+02 0.  0.
        -11    1    3    3    0    0 -0.49035699649E+01 -0.18576027183E+02 -0.44885205643E+03  0.44926304360E+03  0.00000000000E+00 0.  1.
         12    1    3    3    0    0  0.34971803778E+02  0.57426021293E+02 -0.61214608764E+03  0.61582757943E+03  0.00000000000E+00 0. -1.
        -11    1    5    5    0    0  0.60529416642E+02  0.17120222220E+03  0.93510809962E+03  0.95257607000E+03  0.00000000000E+00 0.  1.
         12    1    5    5    0    0  0.15684764969E+02  0.52258413036E+02  0.63221949036E+03  0.63456948995E+03  0.00000000000E+00 0. -1.
          5    1    4    4  501    0 -0.21999216046E+02 -0.27036147647E+03 -0.33349034411E+03  0.42990370210E+03  0.47000000000E+01 0. -1.
         -5    1    4    4    0  501  0.61527415897E+01  0.10976794754E+02 -0.38438167279E+02  0.40717673754E+02  0.47000000000E+01 0. -1.
          1    1    1    2  502    0 -0.31118455726E+02 -0.31092657358E+01 -0.81114377980E+03  0.81174642428E+03  0.00000000000E+00 0. -1.
          1    1    1    2  503    0 -0.59317485241E+02  0.18331810395E+00  0.12933440391E+04  0.12947035959E+04  0.00000000000E+00 0. -1.
<mgrwt>
<rscale>  0 0.43075642E+02</rscale>
<asrwt>0</asrwt>
<pdfrwt beam="1">  1        2 0.42984623E+00 0.59331915E+02</pdfrwt>
<pdfrwt beam="2">  1        2 0.33916959E+00 0.31273404E+02</pdfrwt>
<totfact> 0.40615399E+00</totfact>
</mgrwt>
</event>
<event>
13    1  0.2101801E-008  0.1364147E+03  0.7546771E-02  0.1226166E+00
          2   -1    0    0  503    0  0.00000000000E+00  0.00000000000E+00  0.11082773716E+04  0.11082773716E+04  0.00000000000E+00 0. -1.
          2   -1    0    0  502    0 -0.00000000000E+00 -0.00000000000E+00 -0.26344649317E+04  0.26344649317E+04  0.00000000000E+00 0. -1.
         24    2    1    2    0    0 -0.51501974404E+02 -0.35089781121E+02 -0.37704820953E+03  0.39155098524E+03  0.85223679957E+02 0.  0.
         25    2    1    2    0    0  0.91183628174E+02 -0.17659867427E+03 -0.81561398657E+03  0.84873593185E+03  0.12499984453E+03 0.  0.
         24    2    1    2    0    0  0.10098177422E+03 -0.34160667567E+02  0.36926027210E+03  0.39364493824E+03  0.85081836568E+02 0.  0.
        -11    1    5    5    0    0  0.34208084140E+02 -0.52157966312E+02  0.12375952407E+03  0.13858956046E+03  0.00000000000E+00 0.  1.
         12    1    5    5    0    0  0.66773690078E+02  0.17997298745E+02  0.24550074803E+03  0.25505537778E+03  0.00000000000E+00 0. -1.
        -13    1    3    3    0    0 -0.74352046037E+02 -0.25908535456E+02 -0.24885585521E+03  0.26101478049E+03  0.00000000000E+00 0.  1.
         14    1    3    3    0    0  0.22850071633E+02 -0.91812456648E+01 -0.12819235432E+03  0.13053620475E+03  0.00000000000E+00 0. -1.
          5    1    4    4  501    0  0.66753388274E+02 -0.74661033921E+02 -0.60694287763E+03  0.61516829530E+03  0.47000000000E+01 0. -1.
         -5    1    4    4    0  501  0.24430239900E+02 -0.10193764034E+03 -0.20867110893E+03  0.23356763655E+03  0.47000000000E+01 0. -1.
          1    1    1    2  502    0 -0.43447487929E+02  0.16646124306E+03 -0.13948689104E+04  0.14054381191E+04  0.00000000000E+00 0. -1.
          1    1    1    2  503    0 -0.97215940059E+02  0.79387879897E+02  0.69208327422E+03  0.70337232881E+03  0.00000000000E+00 0. -1.
<mgrwt>
<rscale>  0 0.13087325E+03</rscale>
<asrwt>0</asrwt>
<pdfrwt beam="1">  1        2 0.16298197E+00 0.12555693E+03</pdfrwt>
<pdfrwt beam="2">  1        2 0.38742131E+00 0.13641467E+03</pdfrwt>
<totfact> 0.16865318E+01</totfact>
</mgrwt>
</event>
<event>
13    1  0.2101801E-008  0.2582301E+03  0.7546771E-02  0.1321607E+00
          2   -1    0    0  502    0  0.00000000000E+00  0.00000000000E+00  0.13408115917E+04  0.13408115917E+04  0.00000000000E+00 0. -1.
          2   -1    0    0  503    0 -0.00000000000E+00 -0.00000000000E+00 -0.13939972358E+04  0.13939972358E+04  0.00000000000E+00 0. -1.
         24    2    1    2    0    0 -0.50653851014E+02  0.15384292293E+03 -0.56904722413E+03  0.59710827465E+03  0.80561099797E+02 0.  0.
         25    2    1    2    0    0 -0.90204080762E+02 -0.22433197426E+03  0.35624270154E+03  0.44832603915E+03  0.12500305646E+03 0.  0.
         24    2    1    2    0    0  0.12177268598E+03 -0.17049759184E+03  0.26018090732E+03  0.34339604222E+03  0.79553261426E+02 0.  0.
        -11    1    3    3    0    0  0.21480134669E+02  0.29603974432E+02 -0.96184378690E+02  0.10290396587E+03  0.00000000000E+00 0.  1.
         12    1    3    3    0    0 -0.72133985683E+02  0.12423894849E+03 -0.47286284544E+03  0.49420430878E+03  0.00000000000E+00 0. -1.
        -13    1    5    5    0    0  0.13204609113E+03 -0.16038966464E+03  0.22991626967E+03  0.30987498410E+03  0.00000000000E+00 0.  1.
         14    1    5    5    0    0 -0.10273405155E+02 -0.10107927193E+02  0.30264637647E+02  0.33521058121E+02  0.00000000000E+00 0. -1.
          5    1    4    4  501    0  0.72993052760E+00 -0.15910047084E+03  0.22785615120E+03  0.27794605278E+03  0.47000000000E+01 0. -1.
         -5    1    4    4    0  501 -0.90934011289E+02 -0.65231503420E+02  0.12838655034E+03  0.17037998637E+03  0.47000000000E+01 0. -1.
          1    1    1    2  502    0  0.17926295759E+02 -0.19481197098E+02  0.59895561958E+03  0.59954041010E+03  0.00000000000E+00 0. -1.
          1    1    1    2  503    0  0.11589500394E+01  0.26046784027E+03 -0.69951764847E+03  0.74643806139E+03  0.00000000000E+00 0. -1.
<mgrwt>
<rscale>  0 0.82682327E+02</rscale>
<asrwt>0</asrwt>
<pdfrwt beam="1">  1        2 0.19717818E+00 0.26473933E+02</pdfrwt>
<pdfrwt beam="2">  1        2 0.20499959E+00 0.25823013E+03</pdfrwt>
<totfact> 0.55994952E+01</totfact>
</mgrwt>
</event>
<event>
13    1  0.2101801E-008  0.1160851E+03  0.7546771E-02  0.1288003E+00
          2   -1    0    0  503    0  0.00000000000E+00  0.00000000000E+00  0.22306011146E+04  0.22306011146E+04  0.00000000000E+00 0. -1.
         -1   -1    0    0    0  501 -0.00000000000E+00 -0.00000000000E+00 -0.47982201125E+03  0.47982201125E+03  0.00000000000E+00 0.  1.
         24    2    1    2    0    0  0.12193529387E+02  0.37565382241E+02 -0.51831587447E+02  0.10299323398E+03  0.79757461638E+02 0.  0.
         25    2    1    2    0    0 -0.66559772095E+02 -0.61648215838E+02  0.10277766982E+04  0.10393213649E+04  0.12503300528E+03 0.  0.
         24    2    1    2    0    0 -0.12814715013E+02  0.16897895711E+02 -0.45907695273E+02  0.96256663512E+02  0.81902826477E+02 0.  0.
        -11    1    3    3    0    0  0.20668294938E+02 -0.13941804676E+02  0.54239553685E+01  0.25514145588E+02  0.00000000000E+00 0.  1.
         12    1    3    3    0    0 -0.84747655505E+01  0.51507186917E+02 -0.57255542815E+02  0.77479088394E+02  0.00000000000E+00 0. -1.
        -11    1    5    5    0    0 -0.30315511777E+02 -0.24897130919E+02 -0.19438066711E+02  0.43780541565E+02  0.00000000000E+00 0.  1.
         12    1    5    5    0    0  0.17500796764E+02  0.41795026630E+02 -0.26469628562E+02  0.52476121947E+02  0.00000000000E+00 0. -1.
          5    1    4    4  502    0 -0.98026748176E+02 -0.17382799418E+02  0.63287201159E+03  0.64067189584E+03  0.47000000000E+01 0.  1.
         -5    1    4    4    0  502  0.31466976080E+02 -0.44265416420E+02  0.39490468657E+03  0.39864946902E+03  0.47000000000E+01 0.  1.
          1    1    1    2  503    0  0.14702725180E+03  0.13441700046E+02  0.11365228166E+04  0.11460723384E+04  0.00000000000E+00 0. -1.
         -2    1    1    2    0  501 -0.79846294075E+02 -0.62567621596E+01 -0.31578112871E+03  0.32577952514E+03  0.00000000000E+00 0.  1.
<mgrwt>
<rscale>  0 0.96422928E+02</rscale>
<asrwt>0</asrwt>
<pdfrwt beam="1">  1        2 0.32802957E+00 0.11608513E+03</pdfrwt>
<pdfrwt beam="2">  1       -1 0.70562061E-01 0.80091059E+02</pdfrwt>
<totfact> 0.17453980E+01</totfact>
</mgrwt>
</event>
<event>
13    1  0.2101801E-008  0.5518967E+02  0.7546771E-02  0.1458660E+00
          2   -1    0    0  503    0  0.00000000000E+00  0.00000000000E+00  0.26386934902E+04  0.26386934902E+04  0.00000000000E+00 0. -1.
          2   -1    0    0  502    0 -0.00000000000E+00 -0.00000000000E+00 -0.39815883705E+03  0.39815883705E+03  0.00000000000E+00 0. -1.
         24    2    1    2    0    0  0.54337130870E+02  0.43239310948E+02 -0.21211070919E+02  0.10991474651E+03  0.82517756691E+02 0.  0.
         25    2    1    2    0    0 -0.12610591930E+02 -0.11287703361E+03  0.12910038613E+04  0.13020046229E+04  0.12499926621E+03 0.  0.
         24    2    1    2    0    0  0.70401282215E+01  0.11480939687E+03  0.12478651682E+02  0.13875730283E+03  0.76597071269E+02 0.  0.
        -11    1    5    5    0    0  0.17741448337E+02  0.12294573039E+03  0.75829288036E+01  0.12445044162E+03  0.00000000000E+00 0.  1.
         12    1    5    5    0    0 -0.10701320116E+02 -0.81363335187E+01  0.48957228788E+01  0.14306861216E+02  0.00000000000E+00 0. -1.
        -13    1    3    3    0    0 -0.17487959233E+02 -0.70239512424E+01 -0.10565022889E+02  0.21605191918E+02  0.00000000000E+00 0.  1.
         14    1    3    3    0    0  0.71825090103E+02  0.50263262190E+02 -0.10646048030E+02  0.88309554596E+02  0.00000000000E+00 0. -1.
          5    1    4    4  501    0 -0.64104568866E+02 -0.38841551349E+02  0.71967677777E+03  0.72358469879E+03  0.47000000000E+01 0. -1.
         -5    1    4    4    0  501  0.51493976937E+02 -0.74035482257E+02  0.57132708350E+03  0.57841992413E+03  0.47000000000E+01 0. -1.
          1    1    1    2  502    0 -0.40002376788E+02  0.93307373734E+01 -0.26173025604E+03  0.26493391579E+03  0.00000000000E+00 0. -1.
          1    1    1    2  503    0 -0.87642903745E+01 -0.54502411581E+02  0.12199934671E+04  0.12212417392E+04  0.00000000000E+00 0. -1.
<mgrwt>
<rscale>  0 0.47612823E+02</rscale>
<asrwt>0</asrwt>
<pdfrwt beam="1">  1        2 0.38804315E+00 0.55189668E+02</pdfrwt>
<pdfrwt beam="2">  1        2 0.58552771E-01 0.41076183E+02</pdfrwt>
<totfact> 0.63688271E+01</totfact>
</mgrwt>
</event>
<event>
13    1  0.2101801E-008  0.8275693E+02  0.7546771E-02  0.1419973E+00
          2   -1    0    0  502    0  0.00000000000E+00  0.00000000000E+00  0.56439389688E+03  0.56439389688E+03  0.00000000000E+00 0. -1.
          2   -1    0    0  503    0 -0.00000000000E+00 -0.00000000000E+00 -0.13236932665E+04  0.13236932665E+04  0.00000000000E+00 0. -1.
         24    2    1    2    0    0 -0.35383988449E+02  0.78445995713E+02 -0.56432599988E+03  0.57670487916E+03  0.81968790514E+02 0.  0.
         25    2    1    2    0    0  0.10152708089E+03  0.15891173406E+02  0.14721618415E+03  0.21876255654E+03  0.12499669483E+03 0.  0.
         24    2    1    2    0    0 -0.15592199345E+02  0.89621019506E+01 -0.79510848064E+02  0.11445393548E+03  0.80338611112E+02 0.  0.
        -11    1    5    5    0    0  0.30403755381E+02  0.13748512170E+02 -0.48137988108E+02  0.58571971345E+02  0.00000000000E+00 0.  1.
         12    1    5    5    0    0 -0.45995954725E+02 -0.47864102195E+01 -0.31372859956E+02  0.55881964136E+02  0.00000000000E+00 0. -1.
        -11    1    3    3    0    0  0.11352653874E+02  0.43429159920E+02 -0.39600004065E+03  0.39853607977E+03  0.00000000000E+00 0.  1.
         12    1    3    3    0    0 -0.46736642323E+02  0.35016835793E+02 -0.16832595923E+03  0.17816879939E+03  0.00000000000E+00 0. -1.
          5    1    4    4  501    0  0.39834920995E+02  0.34704404392E+02  0.14462299608E+03  0.15404258375E+03  0.47000000000E+01 0.  1.
         -5    1    4    4    0  501  0.61692159894E+02 -0.18813230986E+02  0.25931880747E+01  0.64719972782E+02  0.47000000000E+01 0.  1.
          1    1    1    2  502    0 -0.24921848524E+01 -0.36503243905E+02  0.35406815060E+03  0.35595358275E+03  0.00000000000E+00 0. -1.
          1    1    1    2  503    0 -0.48058708243E+02 -0.66796027164E+02 -0.61674685643E+03  0.62221220946E+03  0.00000000000E+00 0. -1.
<mgrwt>
<rscale>  0 0.55026619E+02</rscale>
<asrwt>0</asrwt>
<pdfrwt beam="1">  1        2 0.82999102E-01 0.36588219E+02</pdfrwt>
<pdfrwt beam="2">  1        2 0.19466077E+00 0.82756933E+02</pdfrwt>
<totfact> 0.18282235E+02</totfact>
</mgrwt>
</event>
<event>
13    1  0.2101801E-008  0.1270297E+03  0.7546771E-02  0.1310791E+00
          2   -1    0    0  502    0  0.00000000000E+00  0.00000000000E+00  0.19625366582E+04  0.19625366582E+04  0.00000000000E+00 0. -1.
          2   -1    0    0  503    0 -0.00000000000E+00 -0.00000000000E+00 -0.19921150801E+04  0.19921150801E+04  0.00000000000E+00 0. -1.
         24    2    1    2    0    0 -0.99467003838E+01 -0.28256824272E+02 -0.18136579367E+03  0.20034446588E+03  0.79667866347E+02 0.  0.
         25    2    1    2    0    0 -0.13981351545E+03 -0.15216356098E+03  0.78339190925E+03  0.81977428761E+03  0.12500172297E+03 0.  0.
         24    2    1    2    0    0  0.43379567799E+02 -0.67822395193E+02 -0.16283503919E+03  0.19850800910E+03  0.80053204169E+02 0.  0.
        -11    1    5    5    0    0 -0.57378779203E+01 -0.54691708404E+02 -0.12009872290E+03  0.13209015654E+03  0.00000000000E+00 0.  1.
         12    1    5    5    0    0  0.49117445719E+02 -0.13130686789E+02 -0.42736316284E+02  0.66417852563E+02  0.00000000000E+00 0. -1.
        -11    1    3    3    0    0 -0.36736743977E+02 -0.41282500410E+02 -0.11411246346E+03  0.12678914589E+03  0.00000000000E+00 0.  1.
         12    1    3    3    0    0  0.26790043593E+02  0.13025676139E+02 -0.67253330208E+02  0.73555319989E+02  0.00000000000E+00 0. -1.
          5    1    4    4  501    0 -0.85826849341E+02 -0.15994366466E+03  0.66487913687E+03  0.68922752453E+03  0.47000000000E+01 0. -1.
         -5    1    4    4    0  501 -0.53986666105E+02  0.77801036783E+01  0.11851277239E+03  0.13054676307E+03  0.47000000000E+01 0. -1.
          1    1    1    2  502    0  0.15624768937E+01  0.59290400689E+02  0.11255590104E+04  0.11271206142E+04  0.00000000000E+00 0. -1.
          1    1    1    2  503    0  0.10481817114E+03  0.18895237976E+03 -0.15943285087E+04  0.16089043615E+04  0.00000000000E+00 0. -1.
<mgrwt>
<rscale>  0 0.86800079E+02</rscale>
<asrwt>0</asrwt>
<pdfrwt beam="1">  1        2 0.28860834E+00 0.59310985E+02</pdfrwt>
<pdfrwt beam="2">  1        2 0.29295810E+00 0.12702965E+03</pdfrwt>
<totfact> 0.14173778E+01</totfact>
</mgrwt>
</event>
<event>
13    1  0.2101801E-008  0.1614047E+03  0.7546771E-02  0.1320816E+00
          2   -1    0    0  502    0  0.00000000000E+00  0.00000000000E+00  0.17683175441E+04  0.17683175441E+04  0.00000000000E+00 0. -1.
          2   -1    0    0  503    0 -0.00000000000E+00 -0.00000000000E+00 -0.26567845504E+04  0.26567845504E+04  0.00000000000E+00 0. -1.
         24    2    1    2    0    0 -0.31565591851E+02  0.14577891610E+03 -0.73778465620E+03  0.75720081539E+03  0.82334664220E+02 0.  0.
         25    2    1    2    0    0 -0.29112145546E+03 -0.79768858117E+02  0.69019072731E+03  0.76361046626E+03  0.12499172599E+03 0.  0.
         24    2    1    2    0    0  0.25495450741E+02 -0.23904537755E+02 -0.10113224945E+03  0.13391127293E+03  0.80517403126E+02 0.  0.
        -11    1    3    3    0    0  0.26797105863E+01 -0.58424000298E+01 -0.11961917801E+03  0.11979174527E+03  0.00000000000E+00 0.  1.
         12    1    3    3    0    0 -0.34245302437E+02  0.15162131613E+03 -0.61816547819E+03  0.63740907012E+03  0.00000000000E+00 0. -1.
        -13    1    5    5    0    0  0.28704064414E+02  0.24476587893E+02 -0.31983948265E+02  0.49457048187E+02  0.00000000000E+00 0.  1.
         14    1    5    5    0    0 -0.32086136726E+01 -0.48381125649E+02 -0.69148301185E+02  0.84454224747E+02  0.00000000000E+00 0. -1.
          5    1    4    4  501    0 -0.19351889546E+03  0.19409896992E+01  0.48360708972E+03  0.52091384851E+03  0.47000000000E+01 0.  1.
         -5    1    4    4    0  501 -0.97602559997E+02 -0.81709847817E+02  0.20658363759E+03  0.24269661775E+03  0.47000000000E+01 0.  1.
          1    1    1    2  502    0  0.30207425392E+02  0.30116213519E+02  0.10039671091E+04  0.10048728432E+04  0.00000000000E+00 0. -1.
          1    1    1    2  503    0  0.26698417117E+03 -0.72221733743E+02 -0.17437079370E+04  0.17655066967E+04  0.00000000000E+00 0. -1.
<mgrwt>
<rscale>  0 0.82974485E+02</rscale>
<asrwt>0</asrwt>
<pdfrwt beam="1">  1        2 0.26004670E+00 0.42655303E+02</pdfrwt>
<pdfrwt beam="2">  1        2 0.39070361E+00 0.16140467E+03</pdfrwt>
<totfact> 0.81931946E+00</totfact>
</mgrwt>
</event>
<event>
13    1  0.2101801E-008  0.9982672E+02  0.7546771E-02  0.1339878E+00
          2   -1    0    0  503    0  0.00000000000E+00  0.00000000000E+00  0.29240664344E+04  0.29240664344E+04  0.00000000000E+00 0. -1.
          2   -1    0    0  502    0 -0.00000000000E+00 -0.00000000000E+00 -0.22778070653E+04  0.22778070653E+04  0.00000000000E+00 0. -1.
         24    2    1    2    0    0 -0.19896855340E+03 -0.52685839296E+03 -0.13982950242E+03  0.58747045655E+03  0.91656947887E+02 0.  0.
         25    2    1    2    0    0 -0.66297711074E+01  0.29541276831E+03  0.54491667090E+03  0.63235422357E+03  0.12500011318E+03 0.  0.
         24    2    1    2    0    0  0.10632105833E+03  0.31307129432E+03 -0.16407727124E+03  0.37929277600E+03  0.87314696471E+02 0.  0.
        -11    1    3    3    0    0 -0.19962330838E+03 -0.43400994462E+03 -0.11881340647E+03  0.49227098517E+03  0.00000000000E+00 0.  1.
         12    1    3    3    0    0  0.65475497578E+00 -0.92848448338E+02 -0.21016095949E+02  0.95199471384E+02  0.00000000000E+00 0. -1.
        -13    1    5    5    0    0  0.21656404649E+02  0.55642307734E+02 -0.70979294653E+02  0.92753040606E+02  0.00000000000E+00 0.  1.
         14    1    5    5    0    0  0.84664653676E+02  0.25742898658E+03 -0.93097976590E+02  0.28653973540E+03  0.00000000000E+00 0. -1.
          5    1    4    4  501    0 -0.21335384956E+01  0.70789601384E+02  0.25982816819E+03  0.26934826273E+03  0.47000000000E+01 0.  1.
         -5    1    4    4    0  501 -0.44962326118E+01  0.22462316693E+03  0.28508850272E+03  0.36300596084E+03  0.47000000000E+01 0.  1.
          1    1    1    2  502    0  0.97031375417E+02 -0.23343967131E+02 -0.15967706980E+04  0.15998864618E+04  0.00000000000E+00 0. -1.
          1    1    1    2  503    0  0.22458907661E+01 -0.58281702534E+02  0.20020201699E+04  0.20028695817E+04  0.00000000000E+00 0. -1.
<mgrwt>
<rscale>  0 0.76304584E+02</rscale>
<asrwt>0</asrwt>
<pdfrwt beam="1">  1        2 0.43000977E+00 0.58324959E+02</pdfrwt>
<pdfrwt beam="2">  1        2 0.33497163E+00 0.99826723E+02</pdfrwt>
<totfact> 0.36166097E+00</totfact>
</mgrwt>
</event>
<event>
13    1  0.2101801E-008  0.1103828E+03  0.7546771E-02  0.1280419E+00
          2   -1    0    0  503    0  0.00000000000E+00  0.00000000000E+00  0.11954670804E+04  0.11954670804E+04  0.00000000000E+00 0. -1.
          2   -1    0    0  502    0 -0.00000000000E+00 -0.00000000000E+00 -0.20416597229E+04  0.20416597229E+04  0.00000000000E+00 0. -1.
         24    2    1    2    0    0 -0.88874741576E+03  0.42943065976E+03 -0.51215156964E+03  0.11149335835E+04  0.80591592762E+02 0.  0.
         25    2    1    2    0    0  0.34117644573E+03 -0.11998498996E+03  0.32173194921E+02  0.38400133562E+03  0.12499658535E+03 0.  0.
         24    2    1    2    0    0  0.48014282019E+03 -0.49614412589E+03  0.22924347035E+01  0.69266047263E+03  0.55472098025E+02 0.  0.
        -13    1    3    3    0    0 -0.38067123099E+03  0.18051190078E+03 -0.26358747848E+03  0.49696427561E+03  0.00000000000E+00 0.  1.
         14    1    3    3    0    0 -0.50807618477E+03  0.24891875898E+03 -0.24856409116E+03  0.61796930791E+03  0.00000000000E+00 0. -1.
        -13    1    5    5    0    0  0.29464209841E+03 -0.31387501002E+03 -0.24646386228E+02  0.43120636872E+03  0.00000000000E+00 0.  1.
         14    1    5    5    0    0  0.18550072178E+03 -0.18226911587E+03  0.26938820932E+02  0.26145410391E+03  0.00000000000E+00 0. -1.
          5    1    4    4  501    0  0.10797745254E+03 -0.10060594793E+03  0.25590527584E+02  0.14985877390E+03  0.47000000000E+01 0.  1.
         -5    1    4    4    0  501  0.23319899319E+03 -0.19379042033E+02  0.65826673368E+01  0.23414256171E+03  0.47000000000E+01 0.  1.
          1    1    1    2  502    0  0.24051673267E+02  0.10728433315E+03 -0.69658211814E+03  0.70520568520E+03  0.00000000000E+00 0. -1.
          1    1    1    2  503    0  0.43376476579E+02  0.79414122940E+02  0.32807541569E+03  0.34032572636E+03  0.00000000000E+00 0. -1.
<mgrwt>
<rscale>  0 0.99941723E+02</rscale>
<asrwt>0</asrwt>
<pdfrwt beam="1">  1        2 0.17580398E+00 0.90488240E+02</pdfrwt>
<pdfrwt beam="2">  1        2 0.30024408E+00 0.11038283E+03</pdfrwt>
<totfact> 0.31076918E+01</totfact>
</mgrwt>
</event>
<event>
13    1  0.2101801E-008  0.1227134E+03  0.7546771E-02  0.1396243E+00
          2   -1    0    0  503    0  0.00000000000E+00  0.00000000000E+00  0.48528610716E+04  0.48528610716E+04  0.00000000000E+00 0. -1.
          2   -1    0    0  502    0 -0.00000000000E+00 -0.00000000000E+00 -0.26478712241E+04  0.26478712241E+04  0.00000000000E+00 0. -1.
         24    2    1    2    0    0  0.29496100560E+03 -0.82259368515E+03  0.76132513559E+03  0.11629263523E+04  0.95495409296E+02 0.  0.
         25    2    1    2    0    0  0.17546442935E+03 -0.36218280846E+03 -0.45450228825E+03  0.61980733332E+03  0.12499859083E+03 0.  0.
         24    2    1    2    0    0 -0.56121999187E+03  0.11625750858E+04  0.32529583131E+03  0.13338261238E+04  0.82012446638E+02 0.  0.
        -11    1    5    5    0    0 -0.25500125447E+03  0.61084514407E+03  0.18692058859E+03  0.68782027904E+03  0.00000000000E+00 0.  1.
         12    1    5    5    0    0 -0.30621873740E+03  0.55172994171E+03  0.13837524271E+03  0.64600584480E+03  0.00000000000E+00 0. -1.
        -11    1    3    3    0    0  0.22851475198E+03 -0.58846984607E+03  0.60010162769E+03  0.87099811433E+03  0.00000000000E+00 0.  1.
         12    1    3    3    0    0  0.66446253622E+02 -0.23412383908E+03  0.16122350790E+03  0.29192823800E+03  0.00000000000E+00 0. -1.
          5    1    4    4  501    0  0.26521996503E+02 -0.18551950111E+03 -0.16820924821E+03  0.25186770887E+03  0.47000000000E+01 0. -1.
         -5    1    4    4    0  501  0.14894243284E+03 -0.17666330735E+03 -0.28629304003E+03  0.36793962445E+03  0.47000000000E+01 0. -1.
          1    1    1    2  502    0 -0.26922478880E+02 -0.12563570471E+02 -0.14042289204E+04  0.14045431727E+04  0.00000000000E+00 0. -1.
          1    1    1    2  503    0  0.11771703580E+03  0.34764978303E+02  0.29771000892E+04  0.29796293134E+04  0.00000000000E+00 0. -1.
<mgrwt>
<rscale>  0 0.60380220E+02</rscale>
<asrwt>0</asrwt>
<pdfrwt beam="1">  1        2 0.71365604E+00 0.12271337E+03</pdfrwt>
<pdfrwt beam="2">  1        2 0.38939283E+00 0.29709648E+02</pdfrwt>
<totfact> 0.12498665E-01</totfact>
</mgrwt>
</event>
<event>
13    1  0.2101801E-008  0.1514299E+03  0.7546771E-02  0.1392227E+00
          2   -1    0    0  502    0  0.00000000000E+00  0.00000000000E+00  0.35046610856E+04  0.35046610856E+04  0.00000000000E+00 0. -1.
          2   -1    0    0  503    0 -0.00000000000E+00 -0.00000000000E+00 -0.10648315121E+04  0.10648315121E+04  0.00000000000E+00 0. -1.
         24    2    1    2    0    0 -0.54164546982E+02  0.22325792256E+02 -0.63914362193E+03  0.64695095812E+03  0.81294117890E+02 0.  0.
         25    2    1    2    0    0  0.14712663436E+03  0.20219291323E+03  0.59762051639E+03  0.65977492552E+03  0.12499780012E+03 0.  0.
         24    2    1    2    0    0 -0.38195021153E+02 -0.50432638756E+02  0.23428184278E+03  0.25392409321E+03  0.74747257892E+02 0.  0.
        -11    1    3    3    0    0 -0.34197099305E+02  0.52932190924E+02 -0.43874519977E+03  0.44324779612E+03  0.00000000000E+00 0.  1.
         12    1    3    3    0    0 -0.19967447676E+02 -0.30606398668E+02 -0.20039842216E+03  0.20370316200E+03  0.00000000000E+00 0. -1.
        -13    1    5    5    0    0 -0.98832741523E+01 -0.59448887127E+02  0.19832537074E+03  0.20727952617E+03  0.00000000000E+00 0.  1.
         14    1    5    5    0    0 -0.28311747000E+02  0.90162483708E+01  0.35956472038E+02  0.46644567040E+02  0.00000000000E+00 0. -1.
          5    1    4    4  501    0 -0.17832827803E+02 -0.33606824634E-01  0.35231611363E+02  0.39766409394E+02  0.47000000000E+01 0. -1.
         -5    1    4    4    0  501  0.16495946217E+03  0.20222652005E+03  0.56238890503E+03  0.62000851613E+03  0.47000000000E+01 0. -1.
          1    1    1    2  502    0 -0.33746403814E+02 -0.18735869501E+03  0.26240990866E+04  0.26309956512E+04  0.00000000000E+00 0. -1.
          1    1    1    2  503    0 -0.21020662417E+02  0.13272628280E+02 -0.37702825038E+03  0.37784696967E+03  0.00000000000E+00 0. -1.
<mgrwt>
<rscale>  0 0.61356181E+02</rscale>
<asrwt>0</asrwt>
<pdfrwt beam="1">  1        2 0.51539133E+00 0.15142987E+03</pdfrwt>
<pdfrwt beam="2">  1        2 0.15659287E+00 0.24860227E+02</pdfrwt>
<totfact> 0.63676087E+00</totfact>
</mgrwt>
</event>
<event>
13    1  0.2101801E-008  0.6701819E+02  0.7546771E-02  0.1444882E+00
          2   -1    0    0  503    0  0.00000000000E+00  0.00000000000E+00  0.25731797325E+04  0.25731797325E+04  0.00000000000E+00 0. -1.
          2   -1    0    0  502    0 -0.00000000000E+00 -0.00000000000E+00 -0.27003021848E+03  0.27003021848E+03  0.00000000000E+00 0. -1.
         24    2    1    2    0    0 -0.23052525862E+00 -0.21763980445E+02  0.12922633960E+04  0.12949026754E+04  0.79715307228E+02 0.  0.
         25    2    1    2    0    0  0.31564360808E+02  0.31594404778E+02  0.77265884781E+02  0.15357054948E+03  0.12497752369E+03 0.  0.
         24    2    1    2    0    0  0.36275614709E+02  0.31787293009E+02  0.22405402743E+03  0.24335567965E+03  0.81825591302E+02 0.  0.
        -13    1    3    3    0    0  0.69461427484E+01 -0.16290374959E+02  0.58864656929E+02  0.61470912233E+02  0.00000000000E+00 0.  1.
         14    1    3    3    0    0 -0.71766680071E+01 -0.54736054865E+01  0.12333987390E+04  0.12334317632E+04  0.00000000000E+00 0. -1.
        -13    1    5    5    0    0  0.15295126562E+02 -0.23695542617E+02  0.33544715069E+02  0.43825421224E+02  0.00000000000E+00 0.  1.
         14    1    5    5    0    0  0.20980488147E+02  0.55482835626E+02  0.19050931236E+03  0.19953025843E+03  0.00000000000E+00 0. -1.
          5    1    4    4  501    0  0.56892630342E+02  0.63670817355E+02  0.72581446674E+02  0.11216461461E+03  0.47000000000E+01 0. -1.
         -5    1    4    4    0  501 -0.25328269534E+02 -0.32076412578E+02  0.46844381067E+01  0.41405934863E+02  0.47000000000E+01 0. -1.
          1    1    1    2  502    0 -0.80427688988E+00 -0.37422038645E+02 -0.21810725046E+03  0.22129579422E+03  0.00000000000E+00 0. -1.
          1    1    1    2  503    0 -0.66805173369E+02 -0.41956786960E+01  0.92767345631E+03  0.93008525225E+03  0.00000000000E+00 0. -1.
<mgrwt>
<rscale>  0 0.50085293E+02</rscale>
<asrwt>0</asrwt>
<pdfrwt beam="1">  1        2 0.37840877E+00 0.67018193E+02</pdfrwt>
<pdfrwt beam="2">  1        2 0.39710328E-01 0.37430680E+02</pdfrwt>
<totfact> 0.98684712E+01</totfact>
</mgrwt>
</event>
<event>
13    1  0.2101801E-008  0.2032774E+03  0.7546771E-02  0.1238772E+00
         -1   -1    0    0    0  501 -0.00000000000E+00  0.00000000000E+00  0.34604894247E+04  0.34604894247E+04  0.00000000000E+00 0.  1.
          2   -1    0    0  503    0  0.00000000000E+00 -0.00000000000E+00 -0.19721764526E+04  0.19721764526E+04  0.00000000000E+00 0. -1.
         24    2    1    2    0    0  0.50547260888E+03 -0.18734335229E+02 -0.39006202824E+03  0.64411209392E+03  0.82936542118E+02 0.  0.
         25    2    1    2    0    0 -0.22652303156E+03 -0.76328367674E+02 -0.11792119484E+04  0.12096714911E+04  0.12500237432E+03 0.  0.
         24    2    1    2    0    0 -0.20321580003E+03  0.20216981437E+03  0.31086358994E+03  0.43063517998E+03  0.81493505629E+02 0.  0.
        -11    1    5    5    0    0 -0.78504141358E+02  0.63992865886E+02  0.16729726743E+03  0.19556677321E+03  0.00000000000E+00 0.  1.
         12    1    5    5    0    0 -0.12471165867E+03  0.13817694848E+03  0.14356632251E+03  0.23506840677E+03  0.00000000000E+00 0. -1.
        -11    1    3    3    0    0  0.22554420685E+03 -0.28719769192E+02 -0.13007655972E+03  0.26194450896E+03  0.00000000000E+00 0.  1.
         12    1    3    3    0    0  0.27992840203E+03  0.99854339633E+01 -0.25998546852E+03  0.38216758496E+03  0.00000000000E+00 0. -1.
          5    1    4    4  502    0 -0.12534639611E+03  0.52515699465E+01 -0.77356025315E+03  0.78368160197E+03  0.47000000000E+01 0.  1.
         -5    1    4    4    0  502 -0.10117663546E+03 -0.81579937620E+02 -0.40565169521E+03  0.42598988909E+03  0.47000000000E+01 0.  1.
          1    1    1    2  503    0  0.57481340915E+02  0.46627062884E+02 -0.19030035566E+03  0.20418720066E+03  0.00000000000E+00 0. -1.
         -2    1    1    2    0  501 -0.13321511821E+03 -0.15373417435E+03  0.29370237145E+04  0.29440599117E+04  0.00000000000E+00 0.  1.
<mgrwt>
<rscale>  0 0.12266024E+03</rscale>
<asrwt>0</asrwt>
<pdfrwt beam="2">  1        2 0.29002595E+00 0.74014779E+02</pdfrwt>
<pdfrwt beam="1">  1       -1 0.50889550E+00 0.20327743E+03</pdfrwt>
<totfact> 0.18946536E-02</totfact>
</mgrwt>
</event>
<event>
13    1  0.4005213E-008  0.3928626E+02  0.7546771E-02  0.1574210E+00
         -1   -1    0    0    0  501  0.00000000000E+00  0.00000000000E+00  0.18417747222E+04  0.18417747222E+04  0.00000000000E+00 0.  1.
         -1   -1    0    0    0  502 -0.00000000000E+00 -0.00000000000E+00 -0.19939125508E+04  0.19939125508E+04  0.00000000000E+00 0.  1.
         24    2    1    2    0    0 -0.30508780278E+03 -0.98761966057E+03 -0.18543497678E+03  0.10534763015E+04  0.83396797661E+02 0.  0.
         25    2    1    2    0    0 -0.28560949401E+03  0.17082837667E+02 -0.13307494120E+02  0.31250164709E+03  0.12496232880E+03 0.  0.
         24    2    1    2    0    0  0.59483693001E+03  0.92043936331E+03 -0.13932390763E+03  0.11062186717E+04  0.57175199926E+02 0.  0.
        -11    1    5    5    0    0  0.34491537051E+03  0.49125868202E+03 -0.93070160219E+02  0.60742387193E+03  0.00000000000E+00 0.  1.
         12    1    5    5    0    0  0.24992155950E+03  0.42918068129E+03 -0.46253747409E+02  0.49879479974E+03  0.00000000000E+00 0. -1.
        -13    1    3    3    0    0 -0.23729221687E+03 -0.81382124967E+03 -0.18128073231E+03  0.86687676547E+03  0.00000000000E+00 0.  1.
         14    1    3    3    0    0 -0.67795585916E+02 -0.17379841090E+03 -0.41542444706E+01  0.18659953604E+03  0.00000000000E+00 0. -1.
          5    1    4    4  503    0 -0.18464114671E+02  0.29966078168E+02  0.23357301152E+02  0.42503445607E+02  0.47000000000E+01 0.  1.
         -5    1    4    4    0  503 -0.26714537934E+03 -0.12883240501E+02 -0.36664795272E+02  0.26999820148E+03  0.47000000000E+01 0.  1.
         -2    1    1    2    0  502  0.19083323974E+02  0.18411419160E+02 -0.58798401421E+03  0.58858164649E+03  0.00000000000E+00 0.  1.
         -2    1    1    2    0  501 -0.23222957193E+02  0.31686040435E+02  0.77391256414E+03  0.77490900616E+03  0.00000000000E+00 0.  1.
<mgrwt>
<rscale>  0 0.32276238E+02</rscale>
<asrwt>0</asrwt>
<pdfrwt beam="1">  1       -1 0.27084923E+00 0.39286262E+02</pdfrwt>
<pdfrwt beam="2">  1       -1 0.29322243E+00 0.26517044E+02</pdfrwt>
<totfact> 0.35902225E-02</totfact>
</mgrwt>
</event>
<event>
13    1  0.2101801E-008  0.5366489E+02  0.7546771E-02  0.1439907E+00
          2   -1    0    0  502    0  0.00000000000E+00  0.00000000000E+00  0.13870750397E+04  0.13870750397E+04  0.00000000000E+00 0. -1.
          2   -1    0    0  503    0 -0.00000000000E+00 -0.00000000000E+00 -0.22550418683E+04  0.22550418683E+04  0.00000000000E+00 0. -1.
         24    2    1    2    0    0 -0.75174535096E+02 -0.41578255384E+02 -0.56616080409E+03  0.57820159657E+03  0.79994175661E+02 0.  0.
         25    2    1    2    0    0  0.50919897358E+02 -0.31958557043E+02  0.26336631161E+01  0.13873109810E+03  0.12500078434E+03 0.  0.
         24    2    1    2    0    0  0.20747301297E+02  0.12184273131E+03 -0.28039360734E+03  0.31644559694E+03  0.79000880362E+02 0.  0.
        -11    1    3    3    0    0 -0.69335705907E+02 -0.56844582992E+02 -0.34576260646E+03  0.35719816175E+03  0.00000000000E+00 0.  1.
         12    1    3    3    0    0 -0.58388291895E+01  0.15266327607E+02 -0.22039819763E+03  0.22100343482E+03  0.00000000000E+00 0. -1.
        -13    1    5    5    0    0  0.14671743152E+02  0.10622067320E+03 -0.14673211212E+03  0.18173718439E+03  0.00000000000E+00 0.  1.
         14    1    5    5    0    0  0.60755581451E+01  0.15622058112E+02 -0.13366149523E+03  0.13470841255E+03  0.00000000000E+00 0. -1.
          5    1    4    4  501    0  0.57422388001E+01 -0.63564830050E+02 -0.33902146927E+02  0.72421726657E+02  0.47000000000E+01 0. -1.
         -5    1    4    4    0  501  0.45177658558E+02  0.31606273007E+02  0.36535810043E+02  0.66309371447E+02  0.47000000000E+01 0. -1.
          1    1    1    2  502    0  0.46765734202E+02 -0.26355278092E+02  0.12913415554E+04  0.12924568261E+04  0.00000000000E+00 0. -1.
          1    1    1    2  503    0 -0.43258397761E+02 -0.21950640790E+02 -0.13153876356E+04  0.13162817903E+04  0.00000000000E+00 0. -1.
<mgrwt>
<rscale>  0 0.51021839E+02</rscale>
<asrwt>0</asrwt>
<pdfrwt beam="1">  1        2 0.20398163E+00 0.53664887E+02</pdfrwt>
<pdfrwt beam="2">  1        2 0.33162380E+00 0.48508964E+02</pdfrwt>
<totfact> 0.22398897E+01</totfact>
</mgrwt>
</event>
<event>
13    1  0.2101801E-008  0.1109452E+03  0.7546771E-02  0.1270375E+00
          2   -1    0    0  502    0  0.00000000000E+00  0.00000000000E+00  0.15585685350E+04  0.15585685350E+04  0.00000000000E+00 0. -1.
          2   -1    0    0  503    0 -0.00000000000E+00 -0.00000000000E+00 -0.10568099767E+04  0.10568099767E+04  0.00000000000E+00 0. -1.
         24    2    1    2    0    0 -0.24931125408E+03 -0.36599289269E+02 -0.30281239953E+03  0.40198198591E+03  0.79990988878E+02 0.  0.
         25    2    1    2    0    0  0.28868938207E+03  0.13649270007E+02  0.25594276326E+03  0.40578211343E+03  0.12499825450E+03 0.  0.
         24    2    1    2    0    0 -0.15524401056E+02  0.39092121850E+02 -0.29788837943E+03  0.31123494128E+03  0.79752749535E+02 0.  0.
        -13    1    3    3    0    0 -0.63054924581E+02  0.21537844816E+02 -0.53863658244E+02  0.85680195802E+02  0.00000000000E+00 0.  1.
         14    1    3    3    0    0 -0.18625632950E+03 -0.58137134085E+02 -0.24894874128E+03  0.31630179011E+03  0.00000000000E+00 0. -1.
        -13    1    5    5    0    0 -0.33011783786E+02  0.52918070734E+02 -0.25905750150E+03  0.26645992037E+03  0.00000000000E+00 0.  1.
         14    1    5    5    0    0  0.17487382730E+02 -0.13825948884E+02 -0.38830877928E+02  0.44775020915E+02  0.00000000000E+00 0. -1.
          5    1    4    4  501    0  0.13937621017E+03 -0.40265748866E+02  0.17551384738E+03  0.22775921302E+03  0.47000000000E+01 0.  1.
         -5    1    4    4    0  501  0.14931317190E+03  0.53915018873E+02  0.80428915872E+02  0.17802290041E+03  0.47000000000E+01 0.  1.
          1    1    1    2  502    0 -0.22008656900E+02  0.10925601523E+03  0.11565676113E+04  0.11619250825E+04  0.00000000000E+00 0. -1.
          1    1    1    2  503    0 -0.18450700359E+01 -0.12539811782E+03 -0.31005103736E+03  0.33445438853E+03  0.00000000000E+00 0. -1.
<mgrwt>
<rscale>  0 0.10487054E+03</rscale>
<asrwt>0</asrwt>
<pdfrwt beam="1">  1        2 0.22920126E+00 0.11094520E+03</pdfrwt>
<pdfrwt beam="2">  1        2 0.15541323E+00 0.99128488E+02</pdfrwt>
<totfact> 0.63128296E+01</totfact>
</mgrwt>
</event>
<event>
13    1  0.2101801E-008  0.8844986E+02  0.7546771E-02  0.1311356E+00
         -1   -1    0    0    0  501 -0.00000000000E+00  0.00000000000E+00  0.65898407450E+03  0.65898407450E+03  0.00000000000E+00 0.  1.
          2   -1    0    0  503    0  0.00000000000E+00 -0.00000000000E+00 -0.26509229156E+04  0.26509229156E+04  0.00000000000E+00 0. -1.
         24    2    1    2    0    0 -0.74123596755E+02  0.66647217045E+02  0.25162159555E+03  0.28240962281E+03  0.80657352879E+02 0.  0.
         25    2    1    2    0    0  0.64791394750E+02 -0.21644824703E+02 -0.86587739302E+03  0.87751759511E+03  0.12500818653E+03 0.  0.
         24    2    1    2    0    0  0.17536058451E+02  0.43649268780E+02  0.99418574375E+02  0.13516360129E+03  0.78564458706E+02 0.  0.
        -11    1    3    3    0    0 -0.16826869738E+02  0.68858583541E+02  0.13973796759E+03  0.15668869665E+03  0.00000000000E+00 0.  1.
         12    1    3    3    0    0 -0.57296727017E+02 -0.22113664965E+01  0.11188362796E+03  0.12572092616E+03  0.00000000000E+00 0. -1.
        -13    1    5    5    0    0 -0.28987683990E+02  0.31598698401E+02  0.39012892606E+02  0.57972142907E+02  0.00000000000E+00 0.  1.
         14    1    5    5    0    0  0.46523742442E+02  0.12050570379E+02  0.60405681769E+02  0.77191458382E+02  0.00000000000E+00 0. -1.
          5    1    4    4  502    0  0.62614821584E+02  0.41809482584E+02 -0.37356418476E+03  0.38110489219E+03  0.47000000000E+01 0.  1.
         -5    1    4    4    0  502  0.21765731662E+01 -0.63454307287E+02 -0.49231320827E+03  0.49641270292E+03  0.47000000000E+01 0.  1.
          1    1    1    2  503    0  0.78945496952E+02 -0.30814062212E+02 -0.17347123261E+04  0.17367811469E+04  0.00000000000E+00 0. -1.
         -2    1    1    2    0  501 -0.87149353398E+02 -0.57837598910E+02  0.25761070809E+03  0.27803502399E+03  0.00000000000E+00 0.  1.
<mgrwt>
<rscale>  0 0.86578165E+02</rscale>
<asrwt>0</asrwt>
<pdfrwt beam="2">  1        2 0.38984160E+00 0.84746079E+02</pdfrwt>
<pdfrwt beam="1">  1       -1 0.96909425E-01 0.88449859E+02</pdfrwt>
<totfact> 0.58640484E+00</totfact>
</mgrwt>
</event>
<event>
13    1  0.2101801E-008  0.9480166E+02  0.7546771E-02  0.1313683E+00
          2   -1    0    0  503    0  0.00000000000E+00  0.00000000000E+00  0.18476967349E+04  0.18476967349E+04  0.00000000000E+00 0. -1.
         -1   -1    0    0    0  501 -0.00000000000E+00 -0.00000000000E+00 -0.64828691023E+03  0.64828691023E+03  0.00000000000E+00 0.  1.
         24    2    1    2    0    0 -0.50049967949E+02  0.35392997652E+01  0.14282333972E+02  0.95922282266E+02  0.80495796393E+02 0.  0.
         25    2    1    2    0    0 -0.24210267104E+02  0.35089253356E+02  0.81313072290E+03  0.82378648830E+03  0.12500085219E+03 0.  0.
         24    2    1    2    0    0 -0.20459207057E+02  0.20122792780E+02  0.23423709522E+02  0.80802789816E+02  0.71811661529E+02 0.  0.
        -11    1    5    5    0    0  0.24957845670E+02  0.11561765988E+02  0.20848580200E+02  0.34514225902E+02  0.00000000000E+00 0.  1.
         12    1    5    5    0    0 -0.45417052727E+02  0.85610267920E+01  0.25751293221E+01  0.46288563913E+02  0.00000000000E+00 0. -1.
        -13    1    3    3    0    0 -0.14635329505E+02  0.37943418459E+02  0.21535013176E+02  0.46017960261E+02  0.00000000000E+00 0.  1.
         14    1    3    3    0    0 -0.35414638444E+02 -0.34404118694E+02 -0.72526792045E+01  0.49904322006E+02  0.00000000000E+00 0. -1.
          5    1    4    4  502    0  0.17853169604E+02  0.44862174891E+02  0.71288646490E+03  0.71453520014E+03  0.47000000000E+01 0.  1.
         -5    1    4    4    0  502 -0.42063436708E+02 -0.97729215348E+01  0.10024425800E+03  0.10925128816E+03  0.47000000000E+01 0.  1.
          1    1    1    2  503    0  0.29265519005E+02  0.71647404671E+02  0.91107458362E+03  0.91435590342E+03  0.00000000000E+00 0. -1.
         -2    1    1    2    0  501  0.65453923105E+02 -0.13039875057E+03 -0.56250152534E+03  0.58111618134E+03  0.00000000000E+00 0.  1.
<mgrwt>
<rscale>  0 0.85672696E+02</rscale>
<asrwt>0</asrwt>
<pdfrwt beam="1">  1        2 0.27172011E+00 0.77422809E+02</pdfrwt>
<pdfrwt beam="2">  1       -1 0.95336310E-01 0.94801660E+02</pdfrwt>
<totfact> 0.14992606E+01</totfact>
</mgrwt>
</event>
<event>
13    1  0.2101801E-008  0.1509210E+03  0.7546771E-02  0.1401621E+00
          2   -1    0    0  503    0  0.00000000000E+00  0.00000000000E+00  0.22604457256E+04  0.22604457256E+04  0.00000000000E+00 0. -1.
          2   -1    0    0  502    0 -0.00000000000E+00 -0.00000000000E+00 -0.54279502248E+03  0.54279502248E+03  0.00000000000E+00 0. -1.
         24    2    1    2    0    0  0.75133060240E+01 -0.29741205739E+03  0.26641343096E+03  0.40739629715E+03  0.80531019395E+02 0.  0.
         25    2    1    2    0    0 -0.10349978779E+03  0.21390632769E+03  0.11405746482E+04  0.11717511900E+04  0.12498879985E+03 0.  0.
         24    2    1    2    0    0 -0.17965430959E+01 -0.48287543981E+02  0.13605212011E+03  0.16435912373E+03  0.78541884983E+02 0.  0.
        -11    1    5    5    0    0 -0.58056044339E+01  0.15905070522E+02  0.70571463949E+02  0.72574154043E+02  0.00000000000E+00 0.  1.
         12    1    5    5    0    0  0.40090613380E+01 -0.64192614503E+02  0.65480656164E+02  0.91784969691E+02  0.00000000000E+00 0. -1.
        -13    1    3    3    0    0  0.17816628682E+02 -0.22618651529E+03  0.24119540327E+03  0.33113893536E+03  0.00000000000E+00 0.  1.
         14    1    3    3    0    0 -0.10303322658E+02 -0.71225542106E+02  0.25218027693E+02  0.76257361788E+02  0.00000000000E+00 0. -1.
          5    1    4    4  501    0 -0.71900985036E+02  0.21666691438E+03  0.87714908562E+03  0.90638121773E+03  0.47000000000E+01 0.  1.
         -5    1    4    4    0  501 -0.31598802758E+02 -0.27605866898E+01  0.26342556258E+03  0.26536997229E+03  0.47000000000E+01 0.  1.
          1    1    1    2  502    0  0.10413048286E+03  0.10953234971E+03 -0.42943122836E+03  0.45524902305E+03  0.00000000000E+00 0. -1.
          1    1    1    2  503    0 -0.63474579940E+01  0.22260923973E+02  0.60404173223E+03  0.60448511416E+03  0.00000000000E+00 0. -1.
<mgrwt>
<rscale>  0 0.59106243E+02</rscale>
<asrwt>0</asrwt>
<pdfrwt beam="1">  1        2 0.33241849E+00 0.23148196E+02</pdfrwt>
<pdfrwt beam="2">  1        2 0.79822798E-01 0.15092096E+03</pdfrwt>
<totfact> 0.77608797E+01</totfact>
</mgrwt>
</event>
<event>
13    1  0.2101801E-008  0.2987503E+03  0.7546771E-02  0.1268835E+00
          2   -1    0    0  502    0  0.00000000000E+00  0.00000000000E+00  0.32725975511E+04  0.32725975511E+04  0.00000000000E+00 0. -1.
          2   -1    0    0  503    0 -0.00000000000E+00 -0.00000000000E+00 -0.15615560751E+04  0.15615560751E+04  0.00000000000E+00 0. -1.
         24    2    1    2    0    0 -0.20142216031E+03 -0.69257916067E+02 -0.36215804605E+03  0.42754091230E+03  0.79153242338E+02 0.  0.
         25    2    1    2    0    0 -0.16769075949E+03 -0.13606037632E+03  0.30187789061E+03  0.39164722642E+03  0.12499868920E+03 0.  0.
         24    2    1    2    0    0 -0.13560548114E+02 -0.18756959010E+03  0.13148275620E+04  0.13304476878E+04  0.77157582107E+02 0.  0.
        -11    1    3    3    0    0 -0.14969421063E+03 -0.85300426104E+02 -0.28999600895E+03  0.33731617897E+03  0.00000000000E+00 0.  1.
         12    1    3    3    0    0 -0.51727949672E+02  0.16042510038E+02 -0.72162037103E+02  0.90224733330E+02  0.00000000000E+00 0. -1.
        -13    1    5    5    0    0 -0.31537419711E+02 -0.17634290613E+03  0.12317793916E+04  0.12447376828E+04  0.00000000000E+00 0.  1.
         14    1    5    5    0    0  0.17976871597E+02 -0.11226683970E+02  0.83048170392E+02  0.85710004963E+02  0.00000000000E+00 0. -1.
          5    1    4    4  501    0 -0.59541483410E+02 -0.57874441783E+02  0.29405076941E+02  0.88212174943E+02  0.47000000000E+01 0.  1.
         -5    1    4    4    0  501 -0.10814927609E+03 -0.78185934535E+02  0.27247281367E+03  0.30343505148E+03  0.47000000000E+01 0.  1.
          1    1    1    2  502    0 -0.19645889260E+02 -0.31783613495E+02  0.14934601190E+04  0.14939274702E+04  0.00000000000E+00 0. -1.
          1    1    1    2  503    0  0.40231935717E+03  0.42467149598E+03 -0.10369660496E+04  0.11905903295E+04  0.00000000000E+00 0. -1.
<mgrwt>
<rscale>  0 0.10565448E+03</rscale>
<asrwt>0</asrwt>
<pdfrwt beam="1">  1        2 0.48126435E+00 0.37365212E+02</pdfrwt>
<pdfrwt beam="2">  1        2 0.22964060E+00 0.29875030E+03</pdfrwt>
<totfact> 0.52451084E+00</totfact>
</mgrwt>
</event>
<event>
13    1  0.2101801E-008  0.6080986E+02  0.7546771E-02  0.1425398E+00
          2   -1    0    0  502    0  0.00000000000E+00  0.00000000000E+00  0.11586619338E+04  0.11586619338E+04  0.00000000000E+00 0. -1.
          2   -1    0    0  503    0 -0.00000000000E+00 -0.00000000000E+00 -0.58939828672E+03  0.58939828672E+03  0.00000000000E+00 0. -1.
         24    2    1    2    0    0  0.14241362065E+02 -0.15189147890E+02 -0.14603492402E+03  0.16714830403E+03  0.78605533514E+02 0.  0.
         25    2    1    2    0    0  0.62946822970E+02 -0.12290094800E+03  0.27457559943E+03  0.33178453577E+03  0.12498909086E+03 0.  0.
         24    2    1    2    0    0  0.10048659288E+02  0.81254790959E+02  0.81537939184E+02  0.14110729349E+03  0.80990839873E+02 0.  0.
        -13    1    3    3    0    0  0.27508767908E+02 -0.36385916289E+02 -0.49009553209E+02  0.66952248071E+02  0.00000000000E+00 0.  1.
         14    1    3    3    0    0 -0.13267405843E+02  0.21196768399E+02 -0.97025370814E+02  0.10019605596E+03  0.00000000000E+00 0. -1.
        -13    1    5    5    0    0  0.28312853891E+02  0.85380974091E+02  0.82908208484E+02  0.12233274078E+03  0.00000000000E+00 0.  1.
         14    1    5    5    0    0 -0.18264194603E+02 -0.41261831313E+01 -0.13702693002E+01  0.18774552716E+02  0.00000000000E+00 0. -1.
          5    1    4    4  501    0  0.65336873007E+02 -0.57771618298E+02  0.56242916859E+02  0.10388369724E+03  0.47000000000E+01 0.  1.
         -5    1    4    4    0  501 -0.23900500368E+01 -0.65129329704E+02  0.21833268257E+03  0.22790083854E+03  0.47000000000E+01 0.  1.
          1    1    1    2  502    0 -0.46149991169E+02  0.12320662276E+02  0.73036703170E+03  0.73192733342E+03  0.00000000000E+00 0. -1.
          1    1    1    2  503    0 -0.41086853154E+02  0.44514642657E+02 -0.37118199922E+03  0.37609275379E+03  0.00000000000E+00 0. -1.
<mgrwt>
<rscale>  0 0.53894921E+02</rscale>
<asrwt>0</asrwt>
<pdfrwt beam="1">  1        2 0.17039146E+00 0.47766310E+02</pdfrwt>
<pdfrwt beam="2">  1        2 0.86676218E-01 0.60809858E+02</pdfrwt>
<totfact> 0.21790526E+02</totfact>
</mgrwt>
</event>
<event>
13    1  0.2101801E-008  0.9328336E+02  0.7546771E-02  0.1306975E+00
         -1   -1    0    0    0  501 -0.00000000000E+00  0.00000000000E+00  0.30574815552E+03  0.30574815552E+03  0.00000000000E+00 0.  1.
          2   -1    0    0  503    0  0.00000000000E+00 -0.00000000000E+00 -0.41637620829E+04  0.41637620829E+04  0.00000000000E+00 0. -1.
         24    2    1    2    0    0  0.79517890062E+02  0.10039663890E+03  0.16280819539E+03  0.23084835994E+03  0.10189149550E+03 0.  0.
         25    2    1    2    0    0  0.12913411533E+03 -0.66486511505E+02 -0.10406968368E+04  0.10581923889E+04  0.12500059908E+03 0.  0.
         24    2    1    2    0    0 -0.69313088321E+02 -0.26938076499E+02 -0.33785018271E+02  0.12061667545E+03  0.88752412700E+02 0.  0.
        -11    1    3    3    0    0  0.65572274797E+02  0.12160821679E+03  0.13433810511E+03  0.19270445790E+03  0.00000000000E+00 0.  1.
         12    1    3    3    0    0  0.13945615265E+02 -0.21211577884E+02  0.28470090286E+02  0.38143902034E+02  0.00000000000E+00 0. -1.
        -11    1    5    5    0    0  0.24929562001E+01 -0.42245214433E+02 -0.10645995661E+02  0.43637256980E+02  0.00000000000E+00 0.  1.
         12    1    5    5    0    0 -0.71806044521E+02  0.15307137934E+02 -0.23139022610E+02  0.76979418475E+02  0.00000000000E+00 0. -1.
          5    1    4    4  502    0  0.37169618534E+02 -0.48256990922E+02 -0.14171582778E+03  0.15432363253E+03  0.47000000000E+01 0. -1.
         -5    1    4    4    0  502  0.91964496799E+02 -0.18229520583E+02 -0.89898100904E+03  0.90386875635E+03  0.47000000000E+01 0. -1.
          1    1    1    2  503    0 -0.73040883824E+02 -0.57928275389E+02 -0.29711653789E+04  0.29726275187E+04  0.00000000000E+00 0. -1.
         -2    1    1    2    0  501 -0.66298033251E+02  0.50956224492E+02  0.24825111227E+02  0.87225295499E+02  0.00000000000E+00 0.  1.
<mgrwt>
<rscale>  0 0.88318548E+02</rscale>
<asrwt>0</asrwt>
<pdfrwt beam="2">  1        2 0.61231796E+00 0.93283362E+02</pdfrwt>
<pdfrwt beam="1">  1       -1 0.44962964E-01 0.83617977E+02</pdfrwt>
<totfact> 0.33355862E+00</totfact>
</mgrwt>
</event>
<event>
13    1  0.2101801E-008  0.8881600E+02  0.7546771E-02  0.1393513E+00
          2   -1    0    0  503    0  0.00000000000E+00  0.00000000000E+00  0.13575258106E+04  0.13575258106E+04  0.00000000000E+00 0. -1.
          2   -1    0    0  502    0 -0.00000000000E+00 -0.00000000000E+00 -0.28466303998E+04  0.28466303998E+04  0.00000000000E+00 0. -1.
         24    2    1    2    0    0  0.84519186275E+03  0.39109691906E+02  0.96127648325E+02  0.85635387109E+03  0.90678414715E+02 0.  0.
         25    2    1    2    0    0 -0.69642113596E+02 -0.89152513405E+02 -0.99128626251E+01  0.16891255269E+03  0.12503995753E+03 0.  0.
         24    2    1    2    0    0 -0.71269380114E+03  0.15608098779E+03 -0.58781644568E+03  0.94054133901E+03  0.82438508222E+02 0.  0.
        -11    1    3    3    0    0  0.54866301764E+03  0.33875828680E+02  0.19565969259E+02  0.55005591157E+03  0.00000000000E+00 0.  1.
         12    1    3    3    0    0  0.29652884511E+03  0.52338632253E+01  0.76561679066E+02  0.30629795952E+03  0.00000000000E+00 0. -1.
        -11    1    5    5    0    0 -0.58870035696E+03  0.97141084564E+02 -0.48780314923E+03  0.77068567717E+03  0.00000000000E+00 0.  1.
         12    1    5    5    0    0 -0.12399344417E+03  0.58939903223E+02 -0.10001329645E+03  0.16985566183E+03  0.00000000000E+00 0. -1.
          5    1    4    4  501    0 -0.78556786231E+02 -0.34152434931E+01 -0.21894495343E+02  0.81757516336E+02  0.47000000000E+01 0.  1.
         -5    1    4    4    0  501  0.89146726348E+01 -0.85737269912E+02  0.11981632718E+02  0.87155036359E+02  0.47000000000E+01 0.  1.
          1    1    1    2  502    0 -0.61389973140E+02 -0.64111559439E+02 -0.16109990263E+04  0.16134425566E+04  0.00000000000E+00 0. -1.
          1    1    1    2  503    0 -0.14659748794E+01 -0.41926606849E+02  0.62349609707E+03  0.62490589092E+03  0.00000000000E+00 0. -1.
<mgrwt>
<rscale>  0 0.61041209E+02</rscale>
<asrwt>0</asrwt>
<pdfrwt beam="1">  1        2 0.19963615E+00 0.41952228E+02</pdfrwt>
<pdfrwt beam="2">  1        2 0.41862211E+00 0.88816003E+02</pdfrwt>
<totfact> 0.11099444E+01</totfact>
</mgrwt>
</event>
<event>
13    1  0.2101801E-008  0.1530530E+03  0.7546771E-02  0.1410241E+00
          2   -1    0    0  502    0  0.00000000000E+00  0.00000000000E+00  0.17137301441E+04  0.17137301441E+04  0.00000000000E+00 0. -1.
          2   -1    0    0  503    0 -0.00000000000E+00 -0.00000000000E+00 -0.13849011198E+04  0.13849011198E+04  0.00000000000E+00 0. -1.
         24    2    1    2    0    0  0.24200989368E+03 -0.32461655309E+03 -0.15821405428E+03  0.44182435489E+03  0.78945414194E+02 0.  0.
         25    2    1    2    0    0 -0.62896060565E+02  0.13152830946E+03  0.91254468687E+03  0.93253180635E+03  0.12498861424E+03 0.  0.
         24    2    1    2    0    0 -0.71851427387E+01  0.27551530456E+02 -0.13591033727E+03  0.16026390649E+03  0.80013666590E+02 0.  0.
        -11    1    5    5    0    0 -0.66823459542E+00  0.54364904615E+02 -0.68710021565E+02  0.87618813361E+02  0.00000000000E+00 0.  1.
         12    1    5    5    0    0 -0.65169081433E+01 -0.26813374159E+02 -0.67200315701E+02  0.72645093130E+02  0.00000000000E+00 0. -1.
        -13    1    3    3    0    0  0.56672287433E+02 -0.34871537260E+02 -0.99604499119E+01  0.67282856927E+02  0.00000000000E+00 0.  1.
         14    1    3    3    0    0  0.18533760625E+03 -0.28974501583E+03 -0.14825360437E+03  0.37454149796E+03  0.00000000000E+00 0. -1.
          5    1    4    4  501    0  0.14761233679E+02  0.10037513944E+03  0.61827531060E+03  0.62656165884E+03  0.47000000000E+01 0. -1.
         -5    1    4    4    0  501 -0.77657294244E+02  0.31153170020E+02  0.29426937627E+03  0.30597014750E+03  0.47000000000E+01 0. -1.
          1    1    1    2  502    0  0.11131682345E+02  0.18197745733E+02  0.62212892431E+03  0.62249455481E+03  0.00000000000E+00 0. -1.
          1    1    1    2  503    0 -0.18306037272E+03  0.14733896744E+03 -0.91172019531E+03  0.94151664134E+03  0.00000000000E+00 0. -1.
<mgrwt>
<rscale>  0 0.57140112E+02</rscale>
<asrwt>0</asrwt>
<pdfrwt beam="1">  1        2 0.25201914E+00 0.21332424E+02</pdfrwt>
<pdfrwt beam="2">  1        2 0.20366193E+00 0.15305305E+03</pdfrwt>
<totfact> 0.40438935E+01</totfact>
</mgrwt>
</event>
<event>
13    1  0.2101801E-008  0.7877027E+02  0.7546771E-02  0.1371092E+00
          2   -1    0    0  503    0  0.00000000000E+00  0.00000000000E+00  0.14006951531E+04  0.14006951531E+04  0.00000000000E+00 0. -1.
          2   -1    0    0  502    0 -0.00000000000E+00 -0.00000000000E+00 -0.52772438126E+03  0.52772438126E+03  0.00000000000E+00 0. -1.
         24    2    1    2    0    0 -0.72181191113E+02 -0.51691525136E+02 -0.14930313361E+02  0.12448854315E+03  0.85978747355E+02 0.  0.
         25    2    1    2    0    0  0.47751489041E+02 -0.11192602046E+03  0.35540927717E+03  0.39591452536E+03  0.12499967333E+03 0.  0.
         24    2    1    2    0    0 -0.54282483613E+02  0.62734805178E+02  0.68363755464E+03  0.69366022315E+03  0.83198288773E+02 0.  0.
        -13    1    5    5    0    0  0.12916408794E+02 -0.36489847525E+01  0.25867005961E+02  0.29141906308E+02  0.00000000000E+00 0.  1.
         14    1    5    5    0    0 -0.67198892407E+02  0.66383789930E+02  0.65777054868E+03  0.66451831684E+03  0.00000000000E+00 0. -1.
        -13    1    3    3    0    0 -0.62513730486E+01 -0.81206762307E+01 -0.40227206697E+02  0.41512085060E+02  0.00000000000E+00 0.  1.
         14    1    3    3    0    0 -0.65929818064E+02 -0.43570848905E+02  0.25296893336E+02  0.82976458088E+02  0.00000000000E+00 0. -1.
          5    1    4    4  501    0  0.85394438624E+02 -0.44021646475E+02  0.21097464364E+03  0.23186743145E+03  0.47000000000E+01 0.  1.
         -5    1    4    4    0  501 -0.37642949583E+02 -0.67904373986E+02  0.14443463353E+03  0.16404709391E+03  0.47000000000E+01 0.  1.
          1    1    1    2  502    0  0.29292779646E+02  0.72968047981E+02 -0.42625841472E+03  0.43344969614E+03  0.00000000000E+00 0. -1.
          1    1    1    2  503    0  0.49419406039E+02  0.27914692439E+02  0.27511266815E+03  0.28090654660E+03  0.00000000000E+00 0. -1.
<mgrwt>
<rscale>  0 0.66864557E+02</rscale>
<asrwt>0</asrwt>
<pdfrwt beam="1">  1        2 0.20598458E+00 0.56758328E+02</pdfrwt>
<pdfrwt beam="2">  1        2 0.77606527E-01 0.78770272E+02</pdfrwt>
<totfact> 0.18271357E+02</totfact>
</mgrwt>
</event>
<event>
13    1  0.2101801E-008  0.1123943E+03  0.7546771E-02  0.1341978E+00
          2   -1    0    0  503    0  0.00000000000E+00  0.00000000000E+00  0.63260448619E+03  0.63260448619E+03  0.00000000000E+00 0. -1.
          2   -1    0    0  502    0 -0.00000000000E+00 -0.00000000000E+00 -0.18992944378E+04  0.18992944378E+04  0.00000000000E+00 0. -1.
         24    2    1    2    0    0  0.33233702291E+02  0.28668828565E+02 -0.73722943529E+03  0.74273571908E+03  0.78884266146E+02 0.  0.
         25    2    1    2    0    0  0.84585086575E+02  0.52980699954E+02  0.34702819941E+03  0.38211804471E+03  0.12499614983E+03 0.  0.
         24    2    1    2    0    0  0.26216312385E+02 -0.96804755294E+01 -0.13786270655E+03  0.16244501570E+03  0.81248080746E+02 0.  0.
        -11    1    3    3    0    0 -0.10366225002E+02  0.14763587314E+02 -0.53862129904E+03  0.53892330244E+03  0.00000000000E+00 0.  1.
         12    1    3    3    0    0  0.43599927292E+02  0.13905241251E+02 -0.19860813624E+03  0.20381241664E+03  0.00000000000E+00 0. -1.
        -13    1    5    5    0    0 -0.15710483393E+02 -0.10089855696E+02 -0.11120019987E+03  0.11275685756E+03  0.00000000000E+00 0.  1.
         14    1    5    5    0    0  0.41926795778E+02  0.40938016647E+00 -0.26662506689E+02  0.49688158139E+02  0.00000000000E+00 0. -1.
          5    1    4    4  501    0 -0.77503348659E+00 -0.35510836350E+02  0.98171420024E+02  0.10450520506E+03  0.47000000000E+01 0. -1.
         -5    1    4    4    0  501  0.85360120062E+02  0.88491536304E+02  0.24885677938E+03  0.27761283965E+03  0.47000000000E+01 0. -1.
          1    1    1    2  502    0 -0.16016157383E+03 -0.23722073498E+02 -0.98236041691E+03  0.99561360739E+03  0.00000000000E+00 0. -1.
          1    1    1    2  503    0  0.16126472578E+02 -0.48246979492E+02  0.24373440773E+03  0.24898653711E+03  0.00000000000E+00 0. -1.
<mgrwt>
<rscale>  0 0.75614708E+02</rscale>
<asrwt>0</asrwt>
<pdfrwt beam="1">  1        2 0.93030071E-01 0.50870759E+02</pdfrwt>
<pdfrwt beam="2">  1        2 0.27930801E+00 0.11239431E+03</pdfrwt>
<totfact> 0.81879851E+01</totfact>
</mgrwt>
</event>
<event>
13    1  0.2101801E-008  0.2655538E+03  0.7546771E-02  0.1135209E+00
          2   -1    0    0  502    0  0.00000000000E+00  0.00000000000E+00  0.12791548574E+04  0.12791548574E+04  0.00000000000E+00 0. -1.
          2   -1    0    0  503    0 -0.00000000000E+00 -0.00000000000E+00 -0.13984729844E+04  0.13984729844E+04  0.00000000000E+00 0. -1.
         24    2    1    2    0    0 -0.14697523130E+03 -0.48609340303E+02 -0.50243580128E+02  0.18135928152E+03  0.80013655517E+02 0.  0.
         25    2    1    2    0    0  0.80909526355E+02 -0.70160248105E+02  0.93318613789E+02  0.18922285465E+03  0.12501245207E+03 0.  0.
         24    2    1    2    0    0 -0.25712009006E+03 -0.22906945734E+03  0.66999942386E+03  0.75761567487E+03  0.80614675114E+02 0.  0.
        -13    1    3    3    0    0 -0.47081479662E+02 -0.52699242719E+02 -0.39098854920E+02  0.80762592619E+02  0.00000000000E+00 0.  1.
         14    1    3    3    0    0 -0.99893751640E+02  0.40899024165E+01 -0.11144725208E+02  0.10059668890E+03  0.00000000000E+00 0. -1.
        -13    1    5    5    0    0 -0.74675229373E+02 -0.58270926661E+02  0.26819029920E+03  0.28442560954E+03  0.00000000000E+00 0.  1.
         14    1    5    5    0    0 -0.18244486069E+03 -0.17079853068E+03  0.40180912466E+03  0.47319006534E+03  0.00000000000E+00 0. -1.
          5    1    4    4  501    0 -0.73454198730E+01  0.64795234316E+01  0.68859992724E+02  0.69711749475E+02  0.47000000000E+01 0.  1.
         -5    1    4    4    0  501  0.88254946228E+02 -0.76639771536E+02  0.24458621065E+02  0.11951110517E+03  0.47000000000E+01 0.  1.
          1    1    1    2  502    0  0.13868946847E+03 -0.11633876992E+03  0.27806801341E+03  0.33180008761E+03  0.00000000000E+00 0. -1.
          1    1    1    2  503    0  0.18449632654E+03  0.46417781567E+03 -0.11104605979E+04  0.12176299431E+04  0.00000000000E+00 0. -1.
<mgrwt>
<rscale>  0 0.21823047E+03</rscale>
<asrwt>0</asrwt>
<pdfrwt beam="1">  1        2 0.18811101E+00 0.17934044E+03</pdfrwt>
<pdfrwt beam="2">  1        2 0.20565779E+00 0.26555382E+03</pdfrwt>
<totfact> 0.52333366E+01</totfact>
</mgrwt>
</event>
<event>
13    1  0.2101801E-008  0.2636824E+03  0.7546771E-02  0.1254299E+00
          2   -1    0    0  503    0  0.00000000000E+00  0.00000000000E+00  0.78080860462E+03  0.78080860462E+03  0.00000000000E+00 0. -1.
          2   -1    0    0  502    0 -0.00000000000E+00 -0.00000000000E+00 -0.15109686922E+04  0.15109686922E+04  0.00000000000E+00 0. -1.
         24    2    1    2    0    0  0.14629922791E+03  0.10714134545E+03 -0.33648113467E+03  0.38899467141E+03  0.72211968535E+02 0.  0.
         25    2    1    2    0    0  0.16733924417E+03 -0.10069085254E+03 -0.36357144699E+02  0.23470924554E+03  0.12500207016E+03 0.  0.
         24    2    1    2    0    0 -0.54622538769E+02 -0.29443371254E+03  0.17361450637E+03  0.35542935703E+03  0.80704387685E+02 0.  0.
        -11    1    5    5    0    0 -0.87551759758E+01 -0.35393343420E+02 -0.59169976310E+01  0.36937145610E+02  0.00000000000E+00 0.  1.
         12    1    5    5    0    0 -0.45867362793E+02 -0.25904036912E+03  0.17953150401E+03  0.31849221142E+03  0.00000000000E+00 0. -1.
        -13    1    3    3    0    0  0.13203468865E+03  0.11757619314E+03 -0.31452203303E+03  0.36080663722E+03  0.00000000000E+00 0.  1.
         14    1    3    3    0    0  0.14264539255E+02 -0.10434847684E+02 -0.21959101641E+02  0.28188034185E+02  0.00000000000E+00 0. -1.
          5    1    4    4  501    0  0.12479132636E+03 -0.93750635199E+02  0.26457036645E+02  0.15837967522E+03  0.47000000000E+01 0.  1.
         -5    1    4    4    0  501  0.42547917810E+02 -0.69402173415E+01 -0.62814181344E+02  0.76329570316E+02  0.47000000000E+01 0.  1.
          1    1    1    2  502    0 -0.29069918172E+03  0.25084342625E+03 -0.88003366910E+03  0.96014983075E+03  0.00000000000E+00 0. -1.
          1    1    1    2  503    0  0.31683248404E+02  0.37139793379E+02  0.34909735455E+03  0.35249419206E+03  0.00000000000E+00 0. -1.
<mgrwt>
<rscale>  0 0.11345675E+03</rscale>
<asrwt>0</asrwt>
<pdfrwt beam="1">  1        2 0.11482480E+00 0.48817952E+02</pdfrwt>
<pdfrwt beam="2">  1        2 0.22220128E+00 0.26368239E+03</pdfrwt>
<totfact> 0.94087209E+01</totfact>
</mgrwt>
</event>
<event>
13    1  0.2101801E-008  0.1131223E+03  0.7546771E-02  0.1276907E+00
          2   -1    0    0  502    0  0.00000000000E+00  0.00000000000E+00  0.10760029026E+04  0.10760029026E+04  0.00000000000E+00 0. -1.
          4   -1    0    0  503    0 -0.00000000000E+00 -0.00000000000E+00 -0.10570126085E+04  0.10570126085E+04  0.00000000000E+00 0. -1.
         24    2    1    2    0    0 -0.61677379384E+02  0.11491630592E+02 -0.94533272380E+02  0.13966323583E+03  0.81443987828E+02 0.  0.
         25    2    1    2    0    0  0.88104014465E+02 -0.88202186121E+00 -0.13687356324E+02  0.15354242894E+03  0.12499935374E+03 0.  0.
         24    2    1    2    0    0 -0.55955648537E+02  0.43460790037E+02  0.29900783235E+03  0.31956744646E+03  0.87737074018E+02 0.  0.
        -11    1    5    5    0    0 -0.62572750183E+02  0.63920863726E+02  0.21531154049E+03  0.23315292268E+03  0.00000000000E+00 0.  1.
         12    1    5    5    0    0  0.66171016466E+01 -0.20460073690E+02  0.83696291860E+02  0.86414523784E+02  0.00000000000E+00 0. -1.
        -13    1    3    3    0    0 -0.19628926825E+02 -0.15725386464E+02  0.72906707576E+01  0.26186569608E+02  0.00000000000E+00 0.  1.
         14    1    3    3    0    0 -0.42048452559E+02  0.27217017056E+02 -0.10182394314E+03  0.11347666622E+03  0.00000000000E+00 0. -1.
          5    1    4    4  501    0  0.11900466659E+03 -0.12077813359E+02 -0.96366653993E+01  0.12009554349E+03  0.47000000000E+01 0.  1.
         -5    1    4    4    0  501 -0.30900652129E+02  0.11195791497E+02 -0.40506909247E+01  0.33446885448E+02  0.47000000000E+01 0.  1.
          1    1    1    2  502    0 -0.44426611364E+02 -0.10761434324E+03  0.66670001337E+03  0.67678909455E+03  0.00000000000E+00 0. -1.
          3    1    1    2  503    0  0.73955624819E+02  0.53543944470E+02 -0.83849692299E+03  0.84345330534E+03  0.00000000000E+00 0. -1.
<mgrwt>
<rscale>  0 0.10162922E+03</rscale>
<asrwt>0</asrwt>
<pdfrwt beam="1">  1        2 0.15823572E+00 0.11312229E+03</pdfrwt>
<pdfrwt beam="2">  1        4 0.15544303E+00 0.91303825E+02</pdfrwt>
<totfact> 0.40066938E+00</totfact>
</mgrwt>
</event>
<event>
13    1  0.2101801E-008  0.7850067E+02  0.7546771E-02  0.1462646E+00
          2   -1    0    0  503    0  0.00000000000E+00  0.00000000000E+00  0.38552858676E+04  0.38552858676E+04  0.00000000000E+00 0. -1.
         -1   -1    0    0    0  501 -0.00000000000E+00 -0.00000000000E+00 -0.30843650821E+03  0.30843650821E+03  0.00000000000E+00 0.  1.
         24    2    1    2    0    0 -0.62648122834E+02 -0.61697064556E+02 -0.31060000653E+02  0.12264769783E+03  0.79664415348E+02 0.  0.
         25    2    1    2    0    0  0.14310355205E+03  0.11632754783E+03  0.34799133675E+03  0.41320100424E+03  0.12500549771E+03 0.  0.
         24    2    1    2    0    0 -0.90795284148E+01  0.20188755662E+02  0.20137687109E+04  0.20154709191E+04  0.79803391775E+02 0.  0.
        -11    1    5    5    0    0  0.14885237988E+02  0.42204371168E+02  0.15033003379E+04  0.15039663178E+04  0.00000000000E+00 0.  1.
         12    1    5    5    0    0 -0.23964766403E+02 -0.22015615506E+02  0.51046837296E+03  0.51150460130E+03  0.00000000000E+00 0. -1.
        -13    1    3    3    0    0 -0.73706987047E+02 -0.26357555805E+02 -0.34328108102E+02  0.85474321837E+02  0.00000000000E+00 0.  1.
         14    1    3    3    0    0  0.11058864213E+02 -0.35339508751E+02  0.32681074488E+01  0.37173375993E+02  0.00000000000E+00 0. -1.
          5    1    4    4  502    0  0.18264087986E+02  0.32794011758E+02  0.19540855695E+03  0.19903672588E+03  0.47000000000E+01 0.  1.
         -5    1    4    4    0  502  0.12483946406E+03  0.83533536073E+02  0.15258277980E+03  0.21416427836E+03  0.47000000000E+01 0.  1.
          1    1    1    2  503    0 -0.97594385515E+01 -0.26302748313E+02  0.14063699120E+04  0.14066497114E+04  0.00000000000E+00 0. -1.
         -2    1    1    2    0  501 -0.61616462245E+02 -0.48516490624E+02 -0.19022059958E+03  0.20575304320E+03  0.00000000000E+00 0.  1.
<mgrwt>
<rscale>  0 0.46929028E+02</rscale>
<asrwt>0</asrwt>
<pdfrwt beam="1">  1        2 0.56695378E+00 0.28054968E+02</pdfrwt>
<pdfrwt beam="2">  1       -1 0.45358312E-01 0.78500668E+02</pdfrwt>
<totfact> 0.68862519E+00</totfact>
</mgrwt>
</event>
<event>
13    1  0.2101801E-008  0.2955022E+03  0.7546771E-02  0.1165804E+00
          2   -1    0    0  503    0  0.00000000000E+00  0.00000000000E+00  0.19200154447E+04  0.19200154447E+04  0.00000000000E+00 0. -1.
          2   -1    0    0  502    0 -0.00000000000E+00 -0.00000000000E+00 -0.21607857202E+04  0.21607857202E+04  0.00000000000E+00 0. -1.
         24    2    1    2    0    0  0.77944487636E+02 -0.16914790903E+03 -0.90382578828E+03  0.92632285903E+03  0.80539588547E+02 0.  0.
         25    2    1    2    0    0 -0.11410208010E+03  0.56358345233E+03 -0.68078290928E+03  0.89985321595E+03  0.12499939306E+03 0.  0.
         24    2    1    2    0    0 -0.49617945746E+01 -0.18901736603E+03  0.36402076096E+03  0.41818186954E+03  0.81318986320E+02 0.  0.
        -11    1    5    5    0    0 -0.35252934304E+02 -0.14603213249E+03  0.29847562614E+03  0.33414944635E+03  0.00000000000E+00 0.  1.
         12    1    5    5    0    0  0.30291139729E+02 -0.42985233544E+02  0.65545134821E+02  0.84032423192E+02  0.00000000000E+00 0. -1.
        -13    1    3    3    0    0  0.55445175841E+02 -0.93175015400E+02 -0.33768995716E+03  0.35466922362E+03  0.00000000000E+00 0.  1.
         14    1    3    3    0    0  0.22499311795E+02 -0.75972893627E+02 -0.56613583113E+03  0.57165363542E+03  0.00000000000E+00 0. -1.
          5    1    4    4  501    0 -0.29241636827E+02  0.62668952771E+02 -0.14921149737E+03  0.16452547497E+03  0.47000000000E+01 0. -1.
         -5    1    4    4    0  501 -0.84860443277E+02  0.50091449956E+03 -0.53157141191E+03  0.73532774098E+03  0.47000000000E+01 0. -1.
          1    1    1    2  502    0  0.10741749575E+03  0.32386983011E+02 -0.40989545608E+03  0.42497261086E+03  0.00000000000E+00 0. -1.
          1    1    1    2  503    0 -0.66298108707E+02 -0.23780516028E+03  0.13897131172E+04  0.14114706095E+04  0.00000000000E+00 0. -1.
<mgrwt>
<rscale>  0 0.18208102E+03</rscale>
<asrwt>0</asrwt>
<pdfrwt beam="1">  1        2 0.28235521E+00 0.29550220E+03</pdfrwt>
<pdfrwt beam="2">  1        2 0.31776260E+00 0.11219374E+03</pdfrwt>
<totfact> 0.10651785E+01</totfact>
</mgrwt>
</event>
<event>
13    1  0.2101801E-008  0.4204768E+02  0.7546771E-02  0.1505071E+00
          2   -1    0    0  502    0  0.00000000000E+00  0.00000000000E+00  0.12932057224E+04  0.12932057224E+04  0.00000000000E+00 0. -1.
          2   -1    0    0  503    0 -0.00000000000E+00 -0.00000000000E+00 -0.14387311567E+04  0.14387311567E+04  0.00000000000E+00 0. -1.
         24    2    1    2    0    0  0.33316114556E+00 -0.59436009817E+00 -0.81045737416E+03  0.81443628199E+03  0.80404215269E+02 0.  0.
         25    2    1    2    0    0  0.53480756976E+02 -0.13037314297E+02  0.20282598044E+03  0.24454109816E+03  0.12502722671E+03 0.  0.
         24    2    1    2    0    0 -0.38442382784E+02  0.29542870497E+02  0.24890069199E+03  0.26877163690E+03  0.89084456210E+02 0.  0.
        -11    1    3    3    0    0 -0.51896285525E+01 -0.39397057402E+02 -0.48558205480E+03  0.48720528766E+03  0.00000000000E+00 0.  1.
         12    1    3    3    0    0  0.55227896981E+01  0.38802697304E+02 -0.32487531935E+03  0.32723099433E+03  0.00000000000E+00 0. -1.
        -13    1    5    5    0    0 -0.31668905718E+02  0.60656792106E+02  0.18768326622E+03  0.19976780131E+03  0.00000000000E+00 0.  1.
         14    1    5    5    0    0 -0.67734770656E+01 -0.31113921609E+02  0.61217425765E+02  0.69003835594E+02  0.00000000000E+00 0. -1.
          5    1    4    4  501    0 -0.14991158186E+02 -0.54285163417E+02  0.86074041665E+02  0.10296817197E+03  0.47000000000E+01 0. -1.
         -5    1    4    4    0  501  0.68471915162E+02  0.41247849119E+02  0.11675193877E+03  0.14157292619E+03  0.47000000000E+01 0. -1.
          1    1    1    2  502    0 -0.31297396204E+02  0.23058767360E+02  0.80748432174E+03  0.80841954678E+03  0.00000000000E+00 0. -1.
          1    1    1    2  503    0  0.15925860866E+02 -0.38969963462E+02 -0.59427905433E+03  0.59576831530E+03  0.00000000000E+00 0. -1.
<mgrwt>
<rscale>  0 0.40430016E+02</rscale>
<asrwt>0</asrwt>
<pdfrwt beam="1">  1        2 0.19017731E+00 0.38874590E+02</pdfrwt>
<pdfrwt beam="2">  1        2 0.21157811E+00 0.42047676E+02</pdfrwt>
<totfact> 0.62131166E+01</totfact>
</mgrwt>
</event>
<event>
13    1  0.2101801E-008  0.1640003E+03  0.7546771E-02  0.1330382E+00
          2   -1    0    0  502    0  0.00000000000E+00  0.00000000000E+00  0.17326687177E+04  0.17326687177E+04  0.00000000000E+00 0. -1.
          2   -1    0    0  503    0 -0.00000000000E+00 -0.00000000000E+00 -0.59759865478E+03  0.59759865478E+03  0.00000000000E+00 0. -1.
         24    2    1    2    0    0 -0.26785500229E+03 -0.16394538276E+03 -0.70629391484E+02  0.33287726184E+03  0.84819630543E+02 0.  0.
         25    2    1    2    0    0 -0.50712694691E+02  0.16600478383E+03  0.30670698554E+03  0.37392803509E+03  0.12499453905E+03 0.  0.
         24    2    1    2    0    0  0.43871629525E+03 -0.10587441488E+03  0.78567133994E+03  0.90948144769E+03  0.78712577430E+02 0.  0.
        -11    1    5    5    0    0  0.83471472799E+02 -0.76333762256E+01  0.95569542113E+02  0.12711920619E+03  0.00000000000E+00 0.  1.
         12    1    5    5    0    0  0.35524482245E+03 -0.98241038652E+02  0.69010179783E+03  0.78236224149E+03  0.00000000000E+00 0. -1.
        -11    1    3    3    0    0 -0.22744898257E+03 -0.98110549554E+02 -0.60332287816E+02  0.25494843509E+03  0.00000000000E+00 0.  1.
         12    1    3    3    0    0 -0.40406019727E+02 -0.65834833209E+02 -0.10297103668E+02  0.77928826745E+02  0.00000000000E+00 0. -1.
          5    1    4    4  501    0  0.15944922715E+02  0.76421712637E+02  0.47124425414E+02  0.91308927238E+02  0.47000000000E+01 0. -1.
         -5    1    4    4    0  501 -0.66657617406E+02  0.89583071192E+02  0.25958256013E+03  0.28261910785E+03  0.47000000000E+01 0. -1.
          1    1    1    2  502    0  0.25804864572E+02  0.28666246222E+02  0.39019533854E+03  0.39209698664E+03  0.00000000000E+00 0. -1.
          1    1    1    2  503    0 -0.14595346283E+03  0.75148767590E+02 -0.27687420958E+03  0.32188364127E+03  0.00000000000E+00 0. -1.
<mgrwt>
<rscale>  0 0.79532945E+02</rscale>
<asrwt>0</asrwt>
<pdfrwt beam="1">  1        2 0.25480422E+00 0.38569998E+02</pdfrwt>
<pdfrwt beam="2">  1        2 0.87882156E-01 0.16400025E+03</pdfrwt>
<totfact> 0.11335257E+02</totfact>
</mgrwt>
</event>
<event>
13    1  0.2101801E-008  0.8118337E+02  0.7546771E-02  0.1387570E+00
          2   -1    0    0  503    0  0.00000000000E+00  0.00000000000E+00  0.42743118359E+03  0.42743118359E+03  0.00000000000E+00 0. -1.
          2   -1    0    0  502    0 -0.00000000000E+00 -0.00000000000E+00 -0.19353621343E+04  0.19353621343E+04  0.00000000000E+00 0. -1.
         24    2    1    2    0    0 -0.93451673500E+02  0.99068377170E+02 -0.91184692448E+03  0.92546666316E+03  0.80473426099E+02 0.  0.
         25    2    1    2    0    0 -0.15011035094E+02 -0.11352879221E+03 -0.15481722325E+03  0.22958799508E+03  0.12501262750E+03 0.  0.
         24    2    1    2    0    0  0.53342642967E+02 -0.67532036954E+01 -0.21967990878E+03  0.24059897508E+03  0.82082648404E+02 0.  0.
        -11    1    3    3    0    0 -0.61483264961E+02  0.66606151719E+02 -0.34224425275E+03  0.35404477098E+03  0.00000000000E+00 0.  1.
         12    1    3    3    0    0 -0.31968408539E+02  0.32462225451E+02 -0.56960267173E+03  0.57142189218E+03  0.00000000000E+00 0. -1.
        -13    1    5    5    0    0  0.34796477440E+02  0.27029874698E+02 -0.50207132323E+02  0.66799439403E+02  0.00000000000E+00 0.  1.
         14    1    5    5    0    0  0.18546165526E+02 -0.33783078393E+02 -0.16947277646E+03  0.17379953568E+03  0.00000000000E+00 0. -1.
          5    1    4    4  501    0 -0.40945528767E+02 -0.87069727904E+02 -0.32452649377E+02  0.10165106145E+03  0.47000000000E+01 0.  1.
         -5    1    4    4    0  501  0.25934493673E+02 -0.26459064309E+02 -0.12236457388E+03  0.12793693363E+03  0.47000000000E+01 0.  1.
          1    1    1    2  502    0  0.80528661647E+02 -0.19674386537E+02 -0.58989884281E+03  0.59569504915E+03  0.00000000000E+00 0. -1.
          1    1    1    2  503    0 -0.25408596021E+02  0.40888005275E+02  0.36831194859E+03  0.37144463544E+03  0.00000000000E+00 0. -1.
<mgrwt>
<rscale>  0 0.62515110E+02</rscale>
<asrwt>0</asrwt>
<pdfrwt beam="1">  1        2 0.62857529E-01 0.48139648E+02</pdfrwt>
<pdfrwt beam="2">  1        2 0.28461207E+00 0.81183371E+02</pdfrwt>
<totfact> 0.12293383E+02</totfact>
</mgrwt>
</event>
<event>
13    1  0.2101801E-008  0.1991765E+03  0.7546771E-02  0.1230531E+00
          2   -1    0    0  502    0  0.00000000000E+00  0.00000000000E+00  0.29305370179E+04  0.29305370179E+04  0.00000000000E+00 0. -1.
          2   -1    0    0  503    0 -0.00000000000E+00 -0.00000000000E+00 -0.17983682687E+04  0.17983682687E+04  0.00000000000E+00 0. -1.
         24    2    1    2    0    0  0.12271373452E+03 -0.38541934865E+03 -0.52174569714E+03  0.66492830490E+03  0.79399894324E+02 0.  0.
         25    2    1    2    0    0 -0.12435778828E+02  0.42571555972E+03  0.24111806405E+03  0.50512528135E+03  0.12500097068E+03 0.  0.
         24    2    1    2    0    0  0.10074096611E+03 -0.11854578095E+03 -0.12588332362E+03  0.21773246948E+03  0.85784454682E+02 0.  0.
        -11    1    5    5    0    0  0.38715842449E+02 -0.10793418341E+03 -0.83962943935E+02  0.14212135786E+03  0.00000000000E+00 0.  1.
         12    1    5    5    0    0  0.62025123660E+02 -0.10611597540E+02 -0.41920379689E+02  0.75611111622E+02  0.00000000000E+00 0. -1.
        -13    1    3    3    0    0  0.23298950589E+02 -0.41626744859E+02 -0.28635480032E+02  0.55638275520E+02  0.00000000000E+00 0.  1.
         14    1    3    3    0    0  0.99414783927E+02 -0.34379260379E+03 -0.49311021711E+03  0.60929002938E+03  0.00000000000E+00 0. -1.
          5    1    4    4  501    0 -0.26849382631E+02  0.33668258978E+03  0.24076806939E+03  0.41481008769E+03  0.47000000000E+01 0.  1.
         -5    1    4    4    0  501  0.14413603802E+02  0.89032969934E+02  0.34999465535E+00  0.90315193662E+02  0.47000000000E+01 0.  1.
          1    1    1    2  502    0 -0.96385467891E+01  0.81626543637E+02  0.24279424158E+04  0.24293332765E+04  0.00000000000E+00 0. -1.
          1    1    1    2  503    0 -0.20138037501E+03 -0.33769737502E+01 -0.88926270986E+03  0.91178595435E+03  0.00000000000E+00 0. -1.
<mgrwt>
<rscale>  0 0.12794937E+03</rscale>
<asrwt>0</asrwt>
<pdfrwt beam="1">  1        2 0.43096133E+00 0.82193639E+02</pdfrwt>
<pdfrwt beam="2">  1        2 0.26446592E+00 0.19917652E+03</pdfrwt>
<totfact> 0.54433887E+00</totfact>
</mgrwt>
</event>
<event>
13    1  0.2101801E-008  0.9439963E+02  0.7546771E-02  0.1358188E+00
          4   -1    0    0  503    0 -0.00000000000E+00  0.00000000000E+00  0.55783369655E+03  0.55783369655E+03  0.00000000000E+00 0. -1.
          2   -1    0    0  502    0  0.00000000000E+00 -0.00000000000E+00 -0.76187437233E+03  0.76187437233E+03  0.00000000000E+00 0. -1.
         24    2    1    2    0    0  0.74169389961E+02 -0.13254059234E+02  0.11599126884E+03  0.15964650385E+03  0.79726176691E+02 0.  0.
         25    2    1    2    0    0 -0.14503738851E+03 -0.71827886877E+02  0.28487373487E+03  0.35067813331E+03  0.12500807559E+03 0.  0.
         24    2    1    2    0    0  0.90913097185E+01 -0.90127471299E+02 -0.33494252143E+03  0.35664228305E+03  0.82471888584E+02 0.  0.
        -11    1    5    5    0    0  0.29238953665E+02 -0.96163099648E+02 -0.25829957113E+03  0.27716588281E+03  0.00000000000E+00 0.  1.
         12    1    5    5    0    0 -0.20147643946E+02  0.60356283499E+01 -0.76642950292E+02  0.79476400243E+02  0.00000000000E+00 0. -1.
        -13    1    3    3    0    0  0.37974830278E+01 -0.35359791166E+02  0.44006984461E+02  0.56580477110E+02  0.00000000000E+00 0.  1.
         14    1    3    3    0    0  0.70371906933E+02  0.22105731932E+02  0.71984284382E+02  0.10306602674E+03  0.00000000000E+00 0. -1.
          5    1    4    4  501    0 -0.13279224542E+03 -0.75148759551E+02  0.29607571928E+03  0.33311265069E+03  0.47000000000E+01 0. -1.
         -5    1    4    4    0  501 -0.12245143090E+02  0.33208726737E+01 -0.11201984412E+02  0.17565482612E+02  0.47000000000E+01 0. -1.
          1    1    1    2  502    0  0.24771333820E+02  0.13762335508E+03 -0.33850680742E+03  0.36625218841E+03  0.00000000000E+00 0. -1.
          3    1    1    2  503    0  0.37005355008E+02  0.37586062329E+02  0.68543649362E+02  0.86488960270E+02  0.00000000000E+00 0. -1.
<mgrwt>
<rscale>  0 0.70563262E+02</rscale>
<asrwt>0</asrwt>
<pdfrwt beam="2">  1        2 0.11204035E+00 0.94399626E+02</pdfrwt>
<pdfrwt beam="1">  1        4 0.82034368E-01 0.52745695E+02</pdfrwt>
<totfact> 0.27182347E+01</totfact>
</mgrwt>
</event>
<event>
13    1  0.2101801E-008  0.1680207E+03  0.7546771E-02  0.1361767E+00
          2   -1    0    0  502    0  0.00000000000E+00  0.00000000000E+00  0.74962511424E+03  0.74962511424E+03  0.00000000000E+00 0. -1.
          2   -1    0    0  503    0 -0.00000000000E+00 -0.00000000000E+00 -0.30784901812E+04  0.30784901812E+04  0.00000000000E+00 0. -1.
         24    2    1    2    0    0  0.16672077208E+03 -0.40381889124E+01 -0.68359620884E+03  0.70825962706E+03  0.80720504049E+02 0.  0.
         25    2    1    2    0    0 -0.21025638003E+02  0.24366808563E+02  0.72907371163E+02  0.14824538208E+03  0.12500155889E+03 0.  0.
         24    2    1    2    0    0 -0.27350975383E+01 -0.22868321428E+02 -0.47644707111E+02  0.97085687764E+02  0.81395158146E+02 0.  0.
        -11    1    3    3    0    0  0.12922205546E+03  0.27141538389E+02 -0.42266008385E+03  0.44280531750E+03  0.00000000000E+00 0.  1.
         12    1    3    3    0    0  0.37498716625E+02 -0.31179727301E+02 -0.26093612498E+03  0.26545430956E+03  0.00000000000E+00 0. -1.
        -11    1    5    5    0    0  0.98210132148E+01  0.86323950877E+00  0.21096971004E+02  0.23286899076E+02  0.00000000000E+00 0.  1.
         12    1    5    5    0    0 -0.12556110753E+02 -0.23731560936E+02 -0.68741678116E+02  0.73798788688E+02  0.00000000000E+00 0. -1.
          5    1    4    4  501    0 -0.56655219804E+02 -0.19476402350E+02  0.68884105150E+02  0.91412549039E+02  0.47000000000E+01 0. -1.
         -5    1    4    4    0  501  0.35629581800E+02  0.43843210913E+02  0.40232660135E+01  0.56832833044E+02  0.47000000000E+01 0. -1.
          1    1    1    2  502    0  0.25132354145E+02  0.13974637339E+02  0.59852815042E+03  0.59921855158E+03  0.00000000000E+00 0. -1.
          1    1    1    2  503    0 -0.16809239068E+03 -0.11434935562E+02 -0.22690596726E+04  0.22753060469E+04  0.00000000000E+00 0. -1.
<mgrwt>
<rscale>  0 0.69510125E+02</rscale>
<asrwt>0</asrwt>
<pdfrwt beam="1">  1        2 0.11023899E+00 0.28756316E+02</pdfrwt>
<pdfrwt beam="2">  1        2 0.45271915E+00 0.16802074E+03</pdfrwt>
<totfact> 0.16518023E+01</totfact>
</mgrwt>
</event>
<event>
13    1  0.2101801E-008  0.1231144E+03  0.7546771E-02  0.1285036E+00
         -3   -1    0    0    0  501 -0.00000000000E+00  0.00000000000E+00  0.16590346611E+04  0.16590346611E+04  0.00000000000E+00 0.  1.
          2   -1    0    0  503    0  0.00000000000E+00 -0.00000000000E+00 -0.64862474656E+03  0.64862474656E+03  0.00000000000E+00 0. -1.
         24    2    1    2    0    0  0.57663960725E+02 -0.72477819019E+02  0.15160411630E+03  0.19594307508E+03  0.82654183054E+02 0.  0.
         25    2    1    2    0    0 -0.26383198569E+03 -0.44181594533E+02  0.30539045380E+03  0.42479080133E+03  0.12499826260E+03 0.  0.
         24    2    1    2    0    0  0.38793176735E+02  0.18501462885E+02 -0.11433512546E+03  0.14607105689E+03  0.80106292246E+02 0.  0.
        -13    1    5    5    0    0 -0.24491485374E+02  0.82536899515E+01 -0.23785011578E+02  0.35123824243E+02  0.00000000000E+00 0.  1.
         14    1    5    5    0    0  0.63284662109E+02  0.10247772933E+02 -0.90550113885E+02  0.11094723265E+03  0.00000000000E+00 0. -1.
        -13    1    3    3    0    0  0.64963608828E+02 -0.86031175906E+02  0.12377392970E+03  0.16413902453E+03  0.00000000000E+00 0.  1.
         14    1    3    3    0    0 -0.72996481031E+01  0.13553356887E+02  0.27830186597E+02  0.31804050549E+02  0.00000000000E+00 0. -1.
          5    1    4    4  502    0 -0.76870766441E+02 -0.91531782998E+01  0.17178042189E+02  0.79435952437E+02  0.47000000000E+01 0.  1.
         -5    1    4    4    0  502 -0.18696121924E+03 -0.35028416234E+02  0.28821241161E+03  0.34535484889E+03  0.47000000000E+01 0.  1.
          1    1    1    2  503    0  0.11405203308E+03  0.41700771022E+02 -0.42670441235E+03  0.44364791904E+03  0.00000000000E+00 0. -1.
         -4    1    1    2    0  501  0.53322815147E+02  0.56457179646E+02  0.10944548822E+04  0.10972065553E+04  0.00000000000E+00 0.  1.
<mgrwt>
<rscale>  0 0.97779300E+02</rscale>
<asrwt>0</asrwt>
<pdfrwt beam="2">  1        2 0.95385992E-01 0.12311436E+03</pdfrwt>
<pdfrwt beam="1">  1       -3 0.24397568E+00 0.77657812E+02</pdfrwt>
<totfact> 0.28774836E+00</totfact>
</mgrwt>
</event>
<event>
13    1  0.2101801E-008  0.1206091E+03  0.7546771E-02  0.1250307E+00
          2   -1    0    0  503    0  0.00000000000E+00  0.00000000000E+00  0.20804461149E+04  0.20804461149E+04  0.00000000000E+00 0. -1.
          2   -1    0    0  502    0 -0.00000000000E+00 -0.00000000000E+00 -0.29024278018E+04  0.29024278018E+04  0.00000000000E+00 0. -1.
         24    2    1    2    0    0  0.10575528420E+03  0.84744825617E+02 -0.14649038676E+04  0.14734543056E+04  0.82209389745E+02 0.  0.
         25    2    1    2    0    0 -0.49164370113E+02  0.96708617955E+01 -0.96362023624E+02  0.16559398027E+03  0.12500026339E+03 0.  0.
         24    2    1    2    0    0 -0.14026104097E+02 -0.70634612659E+02 -0.36011736092E+03  0.37591569756E+03  0.80262805436E+02 0.  0.
        -11    1    5    5    0    0  0.33067356614E+02 -0.38631594253E+02 -0.16454113482E+03  0.17221972940E+03  0.00000000000E+00 0.  1.
         12    1    5    5    0    0 -0.47093460711E+02 -0.32003018407E+02 -0.19557622611E+03  0.20369596816E+03  0.00000000000E+00 0. -1.
        -13    1    3    3    0    0  0.68576422254E+02  0.88193418579E+01 -0.48391532175E+03  0.48882977109E+03  0.00000000000E+00 0.  1.
         14    1    3    3    0    0  0.37178861947E+02  0.75925483759E+02 -0.98098854583E+03  0.98462453448E+03  0.00000000000E+00 0. -1.
          5    1    4    4  501    0 -0.26409088627E+02 -0.39561400353E+02  0.74485792827E+01  0.48374742307E+02  0.47000000000E+01 0. -1.
         -5    1    4    4    0  501 -0.22755281486E+02  0.49232262148E+02 -0.10381060291E+03  0.11721923796E+03  0.47000000000E+01 0. -1.
          1    1    1    2  502    0 -0.15361952135E+03 -0.25140214026E+02 -0.92623834773E+03  0.93922758931E+03  0.00000000000E+00 0. -1.
          1    1    1    2  503    0  0.11105471136E+03  0.13591392721E+01  0.20256399129E+04  0.20286823440E+04  0.00000000000E+00 0. -1.
<mgrwt>
<rscale>  0 0.11573306E+03</rscale>
<asrwt>0</asrwt>
<pdfrwt beam="1">  1        2 0.30594796E+00 0.11105410E+03</pdfrwt>
<pdfrwt beam="2">  1        2 0.42682761E+00 0.12060915E+03</pdfrwt>
<totfact> 0.40905260E+00</totfact>
</mgrwt>
</event>
<event>
13    1  0.2101801E-008  0.4344672E+03  0.7546771E-02  0.1290126E+00
          2   -1    0    0  503    0  0.00000000000E+00  0.00000000000E+00  0.44864805274E+04  0.44864805274E+04  0.00000000000E+00 0. -1.
          2   -1    0    0  502    0 -0.00000000000E+00 -0.00000000000E+00 -0.24412881772E+04  0.24412881772E+04  0.00000000000E+00 0. -1.
         24    2    1    2    0    0  0.38092947750E+03 -0.14865688153E+04  0.32053725173E+03  0.15697554861E+04  0.79962784087E+02 0.  0.
         25    2    1    2    0    0  0.46270015838E+02  0.10768737152E+04  0.17705801398E+04  0.20766264340E+04  0.12500160861E+03 0.  0.
         24    2    1    2    0    0 -0.18990501803E+03  0.75158921887E+03 -0.71759856953E+03  0.10619022641E+04  0.10834408927E+03 0.  0.
        -13    1    5    5    0    0 -0.74809800403E+02  0.44355628403E+03 -0.46752731789E+03  0.64878384406E+03  0.00000000000E+00 0.  1.
         14    1    5    5    0    0 -0.11509521763E+03  0.30803293483E+03 -0.25007125164E+03  0.41311842002E+03  0.00000000000E+00 0. -1.
        -13    1    3    3    0    0  0.26845194285E+03 -0.11788808470E+04  0.25537131737E+03  0.12357350067E+04  0.00000000000E+00 0.  1.
         14    1    3    3    0    0  0.11247753465E+03 -0.30768796833E+03  0.65165934365E+02  0.33402047940E+03  0.00000000000E+00 0. -1.
          5    1    4    4  501    0  0.16935130440E+02  0.93817008809E+03  0.15991619281E+04  0.18541280633E+04  0.47000000000E+01 0. -1.
         -5    1    4    4    0  501  0.29334885398E+02  0.13870362706E+03  0.17141821176E+03  0.22249837074E+03  0.47000000000E+01 0. -1.
          1    1    1    2  502    0  0.18630176063E+02  0.96425292255E+01 -0.74105479866E+03  0.74135165505E+03  0.00000000000E+00 0. -1.
          1    1    1    2  503    0 -0.25592465138E+03 -0.35153664794E+03  0.14127283269E+04  0.14781328654E+04  0.00000000000E+00 0. -1.
<mgrwt>
<rscale>  0 0.95467805E+02</rscale>
<asrwt>0</asrwt>
<pdfrwt beam="1">  1        2 0.65977655E+00 0.43446723E+03</pdfrwt>
<pdfrwt beam="2">  1        2 0.35901297E+00 0.20977651E+02</pdfrwt>
<totfact> 0.25933013E-01</totfact>
</mgrwt>
</event>
<event>
13    1  0.2101801E-008  0.1385452E+03  0.7546771E-02  0.1222341E+00
          2   -1    0    0  502    0  0.00000000000E+00  0.00000000000E+00  0.19782862950E+04  0.19782862950E+04  0.00000000000E+00 0. -1.
          2   -1    0    0  503    0 -0.00000000000E+00 -0.00000000000E+00 -0.21520843173E+04  0.21520843173E+04  0.00000000000E+00 0. -1.
         24    2    1    2    0    0 -0.21687002918E+02 -0.17340843454E+03 -0.79577705700E+02  0.20800423079E+03  0.79952095140E+02 0.  0.
         25    2    1    2    0    0 -0.19292358535E+03 -0.22958504609E+03 -0.20388375325E+03  0.38357457860E+03  0.12502827414E+03 0.  0.
         24    2    1    2    0    0  0.10650205428E+03  0.16522150764E+03  0.45733984808E+03  0.50416262565E+03  0.79871035495E+02 0.  0.
        -13    1    3    3    0    0 -0.29996828952E+02 -0.17625243504E+03 -0.63582615510E+02  0.18975636906E+03  0.00000000000E+00 0.  1.
         14    1    3    3    0    0  0.83098260332E+01  0.28440004985E+01 -0.15995090190E+02  0.18247861730E+02  0.00000000000E+00 0. -1.
        -13    1    5    5    0    0  0.36040677297E+02  0.49579962860E+02  0.66081064154E+02  0.90132181694E+02  0.00000000000E+00 0.  1.
         14    1    5    5    0    0  0.70461376978E+02  0.11564154478E+03  0.39125878393E+03  0.41403044396E+03  0.00000000000E+00 0. -1.
          5    1    4    4  501    0 -0.52627492205E+02 -0.71133026595E+02  0.15054021383E+01  0.88622325877E+02  0.47000000000E+01 0. -1.
         -5    1    4    4    0  501 -0.14029609315E+03 -0.15845201949E+03 -0.20538915539E+03  0.29495225272E+03  0.47000000000E+01 0. -1.
          1    1    1    2  502    0  0.27606163002E+02  0.12565825403E+03  0.13375685211E+04  0.13437416588E+04  0.00000000000E+00 0. -1.
          1    1    1    2  503    0  0.80502370994E+02  0.11211371896E+03 -0.16852449325E+04  0.16908875185E+04  0.00000000000E+00 0. -1.
<mgrwt>
<rscale>  0 0.13350853E+03</rscale>
<asrwt>0</asrwt>
<pdfrwt beam="1">  1        2 0.29092446E+00 0.12865495E+03</pdfrwt>
<pdfrwt beam="2">  1        2 0.31648299E+00 0.13854522E+03</pdfrwt>
<totfact> 0.10638872E+01</totfact>
</mgrwt>
</event>
<event>
13    1  0.2101801E-008  0.1369670E+03  0.7546771E-02  0.1318534E+00
          2   -1    0    0  503    0  0.00000000000E+00  0.00000000000E+00  0.19635249316E+04  0.19635249316E+04  0.00000000000E+00 0. -1.
          2   -1    0    0  502    0 -0.00000000000E+00 -0.00000000000E+00 -0.16489672881E+04  0.16489672881E+04  0.00000000000E+00 0. -1.
         24    2    1    2    0    0  0.11373726570E+03 -0.71281738060E+01 -0.14903846138E+02  0.13995059352E+03  0.79856543400E+02 0.  0.
         25    2    1    2    0    0  0.18629949533E+03  0.30291496036E+02 -0.23808710683E+03  0.32853519046E+03  0.12499929694E+03 0.  0.
         24    2    1    2    0    0 -0.16425445387E+03  0.66259535836E+02  0.12911019752E+04  0.13057180493E+04  0.81150860588E+02 0.  0.
        -11    1    5    5    0    0 -0.13381516675E+03  0.85070064209E+02  0.10161555771E+04  0.10284529992E+04  0.00000000000E+00 0.  1.
         12    1    5    5    0    0 -0.30439287123E+02 -0.18810528372E+02  0.27494639813E+03  0.27726505013E+03  0.00000000000E+00 0. -1.
        -13    1    3    3    0    0  0.41686255008E+01 -0.26710521270E+02 -0.89875191710E+01  0.28488679961E+02  0.00000000000E+00 0.  1.
         14    1    3    3    0    0  0.10956864020E+03  0.19582347464E+02 -0.59163269665E+01  0.11146191355E+03  0.00000000000E+00 0. -1.
          5    1    4    4  501    0  0.15504200114E+03  0.48430388878E+02 -0.11217720798E+03  0.19745718694E+03  0.47000000000E+01 0. -1.
         -5    1    4    4    0  501  0.31257494191E+02 -0.18138892842E+02 -0.12590989885E+03  0.13107800352E+03  0.47000000000E+01 0. -1.
          1    1    1    2  502    0 -0.14573262383E+01 -0.51281224969E+02 -0.12716499848E+04  0.12726843959E+04  0.00000000000E+00 0. -1.
          1    1    1    2  503    0 -0.13432498092E+03 -0.38141633098E+02  0.54809660598E+03  0.56560399058E+03  0.00000000000E+00 0. -1.
<mgrwt>
<rscale>  0 0.83825249E+02</rscale>
<asrwt>0</asrwt>
<pdfrwt beam="1">  1        2 0.28875367E+00 0.13696702E+03</pdfrwt>
<pdfrwt beam="2">  1        2 0.24249519E+00 0.51301928E+02</pdfrwt>
<totfact> 0.20670210E+01</totfact>
</mgrwt>
</event>
<event>
13    1  0.2101801E-008  0.1708616E+03  0.7546771E-02  0.1260023E+00
          2   -1    0    0  502    0  0.00000000000E+00  0.00000000000E+00  0.18613515429E+04  0.18613515429E+04  0.00000000000E+00 0. -1.
          2   -1    0    0  503    0 -0.00000000000E+00 -0.00000000000E+00 -0.15197970812E+04  0.15197970812E+04  0.00000000000E+00 0. -1.
         24    2    1    2    0    0 -0.15459053760E+03  0.16032026630E+03  0.48045559049E+02  0.23988617557E+03  0.75074492232E+02 0.  0.
         25    2    1    2    0    0 -0.15691930351E+02  0.59163745894E+02 -0.57361253299E+03  0.59025427975E+03  0.12498876453E+03 0.  0.
         24    2    1    2    0    0  0.28555214297E+03 -0.25414616700E+03  0.10339266229E+04  0.11053191349E+04  0.81214701884E+02 0.  0.
        -11    1    5    5    0    0 -0.36910957702E+01 -0.57681664772E+01  0.65209710719E+01  0.94561618119E+01  0.00000000000E+00 0.  1.
         12    1    5    5    0    0  0.28924323874E+03 -0.24837800052E+03  0.10274056519E+04  0.10958629731E+04  0.00000000000E+00 0. -1.
        -13    1    3    3    0    0 -0.10822747253E+02  0.54112597714E+02  0.21302098853E+02  0.59153059980E+02  0.00000000000E+00 0.  1.
         14    1    3    3    0    0 -0.14376779035E+03  0.10620766858E+03  0.26743460195E+02  0.18073311559E+03  0.00000000000E+00 0. -1.
          5    1    4    4  501    0 -0.35926673990E+02  0.11975022726E+02 -0.49357242384E+03  0.49504540665E+03  0.47000000000E+01 0. -1.
         -5    1    4    4    0  501  0.20234743639E+02  0.47188723168E+02 -0.80040109149E+02  0.95208873100E+02  0.47000000000E+01 0. -1.
          1    1    1    2  502    0 -0.17444590607E+03 -0.49292702527E+01  0.62590950292E+03  0.64978333135E+03  0.00000000000E+00 0. -1.
          1    1    1    2  503    0  0.59176231053E+02  0.39591425061E+02 -0.79271469017E+03  0.79590570250E+03  0.00000000000E+00 0. -1.
<mgrwt>
<rscale>  0 0.11029590E+03</rscale>
<asrwt>0</asrwt>
<pdfrwt beam="1">  1        2 0.27372817E+00 0.17086159E+03</pdfrwt>
<pdfrwt beam="2">  1        2 0.22349957E+00 0.71199068E+02</pdfrwt>
<totfact> 0.25458025E+01</totfact>
</mgrwt>
</event>
<event>
13    1  0.2101801E-008  0.6879186E+02  0.7546771E-02  0.1372213E+00
          2   -1    0    0  503    0  0.00000000000E+00  0.00000000000E+00  0.68493884232E+03  0.68493884232E+03  0.00000000000E+00 0. -1.
          2   -1    0    0  502    0 -0.00000000000E+00 -0.00000000000E+00 -0.64438066616E+03  0.64438066616E+03  0.00000000000E+00 0. -1.
         24    2    1    2    0    0  0.12960489041E+01 -0.33268651186E+02 -0.88088470255E+02  0.12319163484E+03  0.79423657738E+02 0.  0.
         25    2    1    2    0    0  0.10485285594E+03 -0.46278028784E+02  0.22717694935E+03  0.28349926915E+03  0.12500676760E+03 0.  0.
         24    2    1    2    0    0 -0.42724499446E+02  0.15379155982E+02  0.20896394752E+03  0.22660820619E+03  0.74989642332E+02 0.  0.
        -11    1    5    5    0    0  0.21191373036E+02  0.75869318786E+01  0.41855132963E+02  0.47523551864E+02  0.00000000000E+00 0.  1.
         12    1    5    5    0    0 -0.63915872482E+02  0.77922241035E+01  0.16710881455E+03  0.17908465432E+03  0.00000000000E+00 0. -1.
        -11    1    3    3    0    0 -0.78947030063E+01 -0.58451915724E+02 -0.55446434873E+02  0.80952207675E+02  0.00000000000E+00 0.  1.
         12    1    3    3    0    0  0.91907519105E+01  0.25183264538E+02 -0.32642035382E+02  0.42239427166E+02  0.00000000000E+00 0. -1.
          5    1    4    4  501    0  0.16583503068E+02  0.21420408876E+02  0.13838290067E+03  0.14108778717E+03  0.47000000000E+01 0. -1.
         -5    1    4    4    0  501  0.88269352875E+02 -0.67698437661E+02  0.88794048678E+02  0.14241148198E+03  0.47000000000E+01 0. -1.
          1    1    1    2  502    0  0.55457556116E+01  0.64152975738E+02 -0.49347727219E+03  0.49766070557E+03  0.00000000000E+00 0. -1.
          1    1    1    2  503    0 -0.68970161012E+02  0.14548250917E-01  0.18598302174E+03  0.19835969272E+03  0.00000000000E+00 0. -1.
<mgrwt>
<rscale>  0 0.66555700E+02</rscale>
<asrwt>0</asrwt>
<pdfrwt beam="1">  1        2 0.10072630E+00 0.68791856E+02</pdfrwt>
<pdfrwt beam="2">  1        2 0.94761862E-01 0.64392233E+02</pdfrwt>
<totfact> 0.37185862E+02</totfact>
</mgrwt>
</event>
<event>
13    1  0.2101801E-008  0.2409138E+03  0.7546771E-02  0.1163177E+00
          2   -1    0    0  503    0  0.00000000000E+00  0.00000000000E+00  0.10313388193E+04  0.10313388193E+04  0.00000000000E+00 0. -1.
         -3   -1    0    0    0  501 -0.00000000000E+00 -0.00000000000E+00 -0.97944572161E+03  0.97944572161E+03  0.00000000000E+00 0.  1.
         24    2    1    2    0    0 -0.15906516396E+02  0.29013541017E+02 -0.15051234229E+03  0.18102276496E+03  0.94976172941E+02 0.  0.
         25    2    1    2    0    0  0.61869419105E+03 -0.47180891569E+02  0.12137135530E+03  0.64448771717E+03  0.12499949256E+03 0.  0.
         24    2    1    2    0    0 -0.32110066498E+03 -0.26902126941E+03 -0.57301725066E+02  0.43017851161E+03  0.79322025374E+02 0.  0.
        -11    1    5    5    0    0 -0.23981207171E+03 -0.24093569944E+03 -0.38213727893E+02  0.34208205156E+03  0.00000000000E+00 0.  1.
         12    1    5    5    0    0 -0.81288593275E+02 -0.28085569969E+02 -0.19087997173E+02  0.88096460049E+02  0.00000000000E+00 0. -1.
        -11    1    3    3    0    0 -0.38501657029E+02 -0.10807619714E+02 -0.24374832936E+02  0.46832838036E+02  0.00000000000E+00 0.  1.
         12    1    3    3    0    0  0.22595140633E+02  0.39821160732E+02 -0.12613750935E+03  0.13418992692E+03  0.00000000000E+00 0. -1.
          5    1    4    4  502    0  0.18894323061E+02 -0.24276557378E+02 -0.37051828131E+01  0.31339512788E+02  0.47000000000E+01 0. -1.
         -5    1    4    4    0  502  0.59979986798E+03 -0.22904334191E+02  0.12507653811E+03  0.61314820439E+03  0.47000000000E+01 0. -1.
          1    1    1    2  503    0 -0.11196088091E+03  0.20031128072E+03  0.38204285061E+03  0.44566420962E+03  0.00000000000E+00 0. -1.
         -4    1    1    2    0  501 -0.16972612875E+03  0.86877339242E+02 -0.24370704089E+03  0.30943133751E+03  0.00000000000E+00 0.  1.
<mgrwt>
<rscale>  0 0.18486348E+03</rscale>
<asrwt>0</asrwt>
<pdfrwt beam="1">  1        2 0.15166748E+00 0.24091377E+03</pdfrwt>
<pdfrwt beam="2">  1       -3 0.14403613E+00 0.14185369E+03</pdfrwt>
<totfact> 0.63470956E+00</totfact>
</mgrwt>
</event>
<event>
13    1  0.2101801E-008  0.6628910E+02  0.7546771E-02  0.1491391E+00
          2   -1    0    0  502    0  0.00000000000E+00  0.00000000000E+00  0.39936041411E+03  0.39936041411E+03  0.00000000000E+00 0. -1.
          2   -1    0    0  503    0 -0.00000000000E+00 -0.00000000000E+00 -0.12097211098E+04  0.12097211098E+04  0.00000000000E+00 0. -1.
         24    2    1    2    0    0  0.44282937684E+02  0.93493972265E+01 -0.16155255856E+03  0.18647105137E+03  0.81386940109E+02 0.  0.
         25    2    1    2    0    0 -0.26044324201E+02  0.79258957755E+02  0.84979963030E+02  0.17264775261E+03  0.12500145262E+03 0.  0.
         24    2    1    2    0    0  0.27921309970E+02 -0.10284507266E+02 -0.10442689054E+03  0.13558910991E+03  0.81203821440E+02 0.  0.
        -11    1    3    3    0    0 -0.11121141012E+02  0.27158541522E+02 -0.27023919920E+02  0.39894340486E+02  0.00000000000E+00 0.  1.
         12    1    3    3    0    0  0.55404078696E+02 -0.17809144295E+02 -0.13452863864E+03  0.14657671088E+03  0.00000000000E+00 0. -1.
        -11    1    5    5    0    0 -0.24052156268E+02  0.10191511868E+02 -0.55460202835E+02  0.61304218727E+02  0.00000000000E+00 0.  1.
         12    1    5    5    0    0  0.51973466238E+02 -0.20476019133E+02 -0.48966687710E+02  0.74284891180E+02  0.00000000000E+00 0. -1.
          5    1    4    4  501    0 -0.65896283316E+01 -0.18192466059E+02 -0.19856747720E+02  0.28120623266E+02  0.47000000000E+01 0. -1.
         -5    1    4    4    0  501 -0.19454695869E+02  0.97451423814E+02  0.10483671075E+03  0.14452712934E+03  0.47000000000E+01 0. -1.
          1    1    1    2  502    0 -0.40934488111E+02 -0.51737672430E+02  0.23780377165E+03  0.24678543895E+03  0.00000000000E+00 0. -1.
          1    1    1    2  503    0 -0.52254353429E+01 -0.26586175286E+02 -0.86716498123E+03  0.86758817106E+03  0.00000000000E+00 0. -1.
<mgrwt>
<rscale>  0 0.42380325E+02</rscale>
<asrwt>0</asrwt>
<pdfrwt beam="1">  1        2 0.58729474E-01 0.66289099E+02</pdfrwt>
<pdfrwt beam="2">  1        2 0.17790016E+00 0.27094831E+02</pdfrwt>
<totfact> 0.32091325E+02</totfact>
</mgrwt>
</event>
<event>
13    1  0.2101801E-008  0.7751996E+02  0.7546771E-02  0.1397903E+00
          2   -1    0    0  503    0  0.00000000000E+00  0.00000000000E+00  0.36437488406E+04  0.36437488406E+04  0.00000000000E+00 0. -1.
          2   -1    0    0  502    0 -0.00000000000E+00 -0.00000000000E+00 -0.12328187269E+04  0.12328187269E+04  0.00000000000E+00 0. -1.
         24    2    1    2    0    0 -0.28023573116E+03  0.84171842789E+03  0.15860639957E+03  0.90643951484E+03  0.97234907375E+02 0.  0.
         25    2    1    2    0    0  0.33966734104E+03 -0.41366413112E+02  0.49501531812E+03  0.61461345605E+03  0.12499780987E+03 0.  0.
         24    2    1    2    0    0 -0.10901887890E+03 -0.74825133386E+03  0.22230635856E+03  0.79217135272E+03  0.79687893868E+02 0.  0.
        -11    1    3    3    0    0 -0.14134561354E+03  0.34631059933E+03  0.10868120212E+03  0.38951407853E+03  0.00000000000E+00 0.  1.
         12    1    3    3    0    0 -0.13889011762E+03  0.49540782855E+03  0.49925197458E+02  0.51692543631E+03  0.00000000000E+00 0. -1.
        -13    1    5    5    0    0 -0.72814880116E+02 -0.52886625957E+03  0.19405867207E+03  0.56803194935E+03  0.00000000000E+00 0.  1.
         14    1    5    5    0    0 -0.36203998780E+02 -0.21938507429E+03  0.28247686491E+02  0.22413940337E+03  0.00000000000E+00 0. -1.
          5    1    4    4  501    0  0.20483255270E+03 -0.77671473211E+02  0.24890135544E+03  0.33160700707E+03  0.47000000000E+01 0.  1.
         -5    1    4    4    0  501  0.13483478833E+03  0.36305060099E+02  0.24611396268E+03  0.28300644897E+03  0.47000000000E+01 0.  1.
          1    1    1    2  502    0  0.76259708434E+02 -0.14116664091E+02 -0.51098138867E+03  0.51683343826E+03  0.00000000000E+00 0. -1.
          1    1    1    2  503    0 -0.26672439418E+02 -0.37984016818E+02  0.20459834261E+04  0.20465098056E+04  0.00000000000E+00 0. -1.
<mgrwt>
<rscale>  0 0.59983043E+02</rscale>
<asrwt>0</asrwt>
<pdfrwt beam="1">  1        2 0.53584542E+00 0.46413409E+02</pdfrwt>
<pdfrwt beam="2">  1        2 0.18129687E+00 0.77519957E+02</pdfrwt>
<totfact> 0.50282077E+00</totfact>
</mgrwt>
</event>
<event>
13    1  0.2101801E-008  0.3379463E+02  0.7546771E-02  0.1563580E+00
          4   -1    0    0  503    0 -0.00000000000E+00  0.00000000000E+00  0.96932316581E+03  0.96932316581E+03  0.00000000000E+00 0. -1.
          2   -1    0    0  502    0  0.00000000000E+00 -0.00000000000E+00 -0.31609268491E+04  0.31609268491E+04  0.00000000000E+00 0. -1.
         24    2    1    2    0    0  0.61838533227E+03  0.43861993172E+03 -0.23217974653E+03  0.79740559572E+03  0.84619062362E+02 0.  0.
         25    2    1    2    0    0  0.95788383204E+02 -0.29701065545E+02 -0.12701787902E+03  0.20448132577E+03  0.12498601261E+03 0.  0.
         24    2    1    2    0    0 -0.70999735729E+03 -0.37850812862E+03 -0.90621873766E+03  0.12136452670E+04  0.65861846915E+02 0.  0.
        -11    1    5    5    0    0 -0.39567663789E+03 -0.23912836766E+03 -0.48790444676E+03  0.67215558255E+03  0.00000000000E+00 0.  1.
         12    1    5    5    0    0 -0.31432071941E+03 -0.13937976097E+03 -0.41831429090E+03  0.54148968447E+03  0.00000000000E+00 0. -1.
        -13    1    3    3    0    0  0.12672107243E+03  0.12778264516E+03 -0.35965150311E+02  0.18352146098E+03  0.00000000000E+00 0.  1.
         14    1    3    3    0    0  0.49166425984E+03  0.31083728657E+03 -0.19621459622E+03  0.61388413475E+03  0.00000000000E+00 0. -1.
          5    1    4    4  501    0  0.52872721407E+02 -0.71601881584E+02 -0.11074293944E+03  0.14215640242E+03  0.47000000000E+01 0.  1.
         -5    1    4    4    0  501  0.42915661798E+02  0.41900816039E+02 -0.16274939580E+02  0.62324923350E+02  0.47000000000E+01 0.  1.
          1    1    1    2  502    0 -0.31311591352E+02 -0.10256760573E+02 -0.14196833232E+04  0.14200656164E+04  0.00000000000E+00 0. -1.
          3    1    1    2  503    0  0.27135233165E+02 -0.20153976983E+02  0.49349600314E+03  0.49465220992E+03  0.00000000000E+00 0. -1.
<mgrwt>
<rscale>  0 0.33368984E+02</rscale>
<asrwt>0</asrwt>
<pdfrwt beam="2">  1        2 0.46484219E+00 0.32948701E+02</pdfrwt>
<pdfrwt beam="1">  1        4 0.14254752E+00 0.33794627E+02</pdfrwt>
<totfact> 0.52155564E-01</totfact>
</mgrwt>
</event>
<event>
13    1  0.2101801E-008  0.1078031E+03  0.7546771E-02  0.1267592E+00
          2   -1    0    0  502    0  0.00000000000E+00  0.00000000000E+00  0.10014796664E+04  0.10014796664E+04  0.00000000000E+00 0. -1.
          2   -1    0    0  503    0 -0.00000000000E+00 -0.00000000000E+00 -0.18200887832E+04  0.18200887832E+04  0.00000000000E+00 0. -1.
         24    2    1    2    0    0 -0.15469647511E+03 -0.18158439469E+03 -0.60807906226E+03  0.65814168867E+03  0.80538466554E+02 0.  0.
         25    2    1    2    0    0  0.78258632338E+02  0.14654700173E+03 -0.35821184603E+02  0.21097109951E+03  0.12500084124E+03 0.  0.
         24    2    1    2    0    0  0.67288180073E+02  0.33313175997E+02 -0.96089451762E+02  0.14605283616E+03  0.80378985678E+02 0.  0.
        -13    1    3    3    0    0 -0.11999050066E+02 -0.11085195542E+02 -0.12846952400E+03  0.12950396658E+03  0.00000000000E+00 0.  1.
         14    1    3    3    0    0 -0.14269742504E+03 -0.17049919915E+03 -0.47960953826E+03  0.52863772209E+03  0.00000000000E+00 0. -1.
        -13    1    5    5    0    0  0.16705607919E+01 -0.20303289984E+02 -0.38626040149E+02  0.43669043213E+02  0.00000000000E+00 0.  1.
         14    1    5    5    0    0  0.65617619281E+02  0.53616465982E+02 -0.57463411613E+02  0.10238379295E+03  0.00000000000E+00 0. -1.
          5    1    4    4  501    0 -0.18476430855E+02  0.96975677317E+02 -0.11610991521E+02  0.99511635562E+02  0.47000000000E+01 0.  1.
         -5    1    4    4    0  501  0.96735063193E+02  0.49571324417E+02 -0.24210193081E+02  0.11145946395E+03  0.47000000000E+01 0.  1.
          1    1    1    2  502    0  0.61155273085E+02 -0.89267160008E+02  0.85756782331E+03  0.86436749410E+03  0.00000000000E+00 0. -1.
          1    1    1    2  503    0 -0.52005610390E+02  0.90991376968E+02 -0.93618724145E+03  0.94203533121E+03  0.00000000000E+00 0. -1.
<mgrwt>
<rscale>  0 0.10629332E+03</rscale>
<asrwt>0</asrwt>
<pdfrwt beam="1">  1        2 0.14727642E+00 0.10780314E+03</pdfrwt>
<pdfrwt beam="2">  1        2 0.26766012E+00 0.10480465E+03</pdfrwt>
<totfact> 0.50644909E+01</totfact>
</mgrwt>
</event>
<event>
13    1  0.2101801E-008  0.1616067E+03  0.7546771E-02  0.1222667E+00
          2   -1    0    0  502    0  0.00000000000E+00  0.00000000000E+00  0.23066273410E+04  0.23066273410E+04  0.00000000000E+00 0. -1.
          2   -1    0    0  503    0 -0.00000000000E+00 -0.00000000000E+00 -0.16926778779E+04  0.16926778779E+04  0.00000000000E+00 0. -1.
         24    2    1    2    0    0  0.68791800556E+01  0.84507638083E+02 -0.56712048569E+02  0.13061309722E+03  0.81576103731E+02 0.  0.
         25    2    1    2    0    0 -0.28633738607E+03  0.60096037359E+02  0.12682708448E+02  0.31841303859E+03  0.12500151872E+03 0.  0.
         24    2    1    2    0    0  0.59753531897E+01  0.56912672217E+02 -0.20840057248E+03  0.23048565176E+03  0.80112920011E+02 0.  0.
        -13    1    5    5    0    0  0.34234662395E+02  0.49394842666E+02 -0.87856509225E+02  0.10644542641E+03  0.00000000000E+00 0.  1.
         14    1    5    5    0    0 -0.28259309205E+02  0.75178295512E+01 -0.12054406325E+03  0.12404022535E+03  0.00000000000E+00 0. -1.
        -13    1    3    3    0    0  0.36524713503E+02  0.11325060453E+02 -0.23988771277E+02  0.45141697333E+02  0.00000000000E+00 0.  1.
         14    1    3    3    0    0 -0.29645533448E+02  0.73182577629E+02 -0.32723277292E+02  0.85471399887E+02  0.00000000000E+00 0. -1.
          5    1    4    4  501    0 -0.17735791230E+03  0.65839129176E+02 -0.45523320123E+02  0.19464090696E+03  0.47000000000E+01 0. -1.
         -5    1    4    4    0  501 -0.10897947377E+03 -0.57430918171E+01  0.58206028571E+02  0.12377213163E+03  0.47000000000E+01 0. -1.
          1    1    1    2  502    0  0.15773286036E+03 -0.13187754683E+03  0.20842942355E+04  0.20944101324E+04  0.00000000000E+00 0. -1.
          1    1    1    2  503    0  0.11574999247E+03 -0.69638800828E+02 -0.12179148598E+04  0.12253832989E+04  0.00000000000E+00 0. -1.
<mgrwt>
<rscale>  0 0.13328127E+03</rscale>
<asrwt>0</asrwt>
<pdfrwt beam="1">  1        2 0.33920990E+00 0.16160672E+03</pdfrwt>
<pdfrwt beam="2">  1        2 0.24892322E+00 0.10992053E+03</pdfrwt>
<totfact> 0.12254252E+01</totfact>
</mgrwt>
</event>
<event>
13    1  0.2101801E-008  0.4299042E+02  0.7546771E-02  0.1540861E+00
         -1   -1    0    0    0  501 -0.00000000000E+00  0.00000000000E+00  0.67107345348E+03  0.67107345348E+03  0.00000000000E+00 0.  1.
          2   -1    0    0  503    0  0.00000000000E+00 -0.00000000000E+00 -0.23152769882E+04  0.23152769882E+04  0.00000000000E+00 0. -1.
         24    2    1    2    0    0  0.51115105965E+02  0.47373790203E+03 -0.32087972678E+03  0.58231196482E+03  0.95305149037E+02 0.  0.
         25    2    1    2    0    0  0.12502544514E+03 -0.26309411492E+03 -0.35735013262E+03  0.47767540603E+03  0.12499920403E+03 0.  0.
         24    2    1    2    0    0 -0.13584200460E+03 -0.24317964234E+03 -0.12273161820E+04  0.12614134602E+04  0.85261469961E+02 0.  0.
        -11    1    3    3    0    0 -0.54919870304E+01  0.20605714159E+03 -0.92554962164E+02  0.22595603232E+03  0.00000000000E+00 0.  1.
         12    1    3    3    0    0  0.56607092996E+02  0.26768076044E+03 -0.22832476462E+03  0.35635593250E+03  0.00000000000E+00 0. -1.
        -11    1    5    5    0    0 -0.11581215264E+02 -0.10174502440E+03 -0.39335517821E+03  0.40646582976E+03  0.00000000000E+00 0.  1.
         12    1    5    5    0    0 -0.12426078933E+03 -0.14143461794E+03 -0.83396100382E+03  0.85494763044E+03  0.00000000000E+00 0. -1.
          5    1    4    4  502    0  0.11720923999E+03 -0.27334014748E+03 -0.35597532254E+03  0.46388938598E+03  0.47000000000E+01 0. -1.
         -5    1    4    4    0  502  0.78162051548E+01  0.10246032562E+02 -0.13748100773E+01  0.13786020058E+02  0.47000000000E+01 0. -1.
          1    1    1    2  503    0 -0.28623662238E+02 -0.88392895121E+01 -0.19968618294E+03  0.20192082294E+03  0.00000000000E+00 0. -1.
         -2    1    1    2    0  501 -0.11674884271E+02  0.41375144744E+02  0.46102868966E+03  0.46302878768E+03  0.00000000000E+00 0.  1.
<mgrwt>
<rscale>  0 0.35887073E+02</rscale>
<asrwt>0</asrwt>
<pdfrwt beam="2">  1        2 0.34048191E+00 0.29957421E+02</pdfrwt>
<pdfrwt beam="1">  1       -1 0.98687273E-01 0.42990416E+02</pdfrwt>
<totfact> 0.97405988E+00</totfact>
</mgrwt>
</event>
<event>
13    1  0.2101801E-008  0.1055821E+03  0.7546771E-02  0.1386413E+00
          2   -1    0    0  502    0  0.00000000000E+00  0.00000000000E+00  0.19173805096E+04  0.19173805096E+04  0.00000000000E+00 0. -1.
          2   -1    0    0  503    0 -0.00000000000E+00 -0.00000000000E+00 -0.10159324136E+04  0.10159324136E+04  0.00000000000E+00 0. -1.
         24    2    1    2    0    0 -0.12994507497E+03  0.10723777872E+03 -0.68967678748E+03  0.71456566740E+03  0.81020726640E+02 0.  0.
         25    2    1    2    0    0  0.59827012735E+02  0.55592775067E+02  0.47167390229E+03  0.49473775075E+03  0.12497737323E+03 0.  0.
         24    2    1    2    0    0 -0.23704133936E+01 -0.50540128362E+02  0.37803967356E+02  0.10286671783E+03  0.81194200870E+02 0.  0.
        -11    1    3    3    0    0 -0.10397323805E+01 -0.25262665367E+01 -0.12556382074E+03  0.12559353544E+03  0.00000000000E+00 0.  1.
         12    1    3    3    0    0 -0.12890534259E+03  0.10976404526E+03 -0.56411296674E+03  0.58897213196E+03  0.00000000000E+00 0. -1.
        -13    1    5    5    0    0 -0.83457774865E+01  0.12998986083E+02 -0.13861980323E+02  0.20755243663E+02  0.00000000000E+00 0.  1.
         14    1    5    5    0    0  0.59753640929E+01 -0.63539114445E+02  0.51665947678E+02  0.82111474168E+02  0.00000000000E+00 0. -1.
          5    1    4    4  501    0  0.12670783548E+02 -0.40199593210E+02  0.13678205150E+03  0.14320606015E+03  0.47000000000E+01 0. -1.
         -5    1    4    4    0  501  0.47156229187E+02  0.95792368276E+02  0.33489185079E+03  0.35153169060E+03  0.47000000000E+01 0. -1.
          1    1    1    2  502    0  0.33974434532E+02 -0.15546551591E+02  0.13410760902E+04  0.13415964509E+04  0.00000000000E+00 0. -1.
          1    1    1    2  503    0  0.38514041099E+02 -0.96743873836E+02 -0.25942907633E+03  0.27954633629E+03  0.00000000000E+00 0. -1.
<mgrwt>
<rscale>  0 0.62807754E+02</rscale>
<asrwt>0</asrwt>
<pdfrwt beam="1">  1        2 0.28196772E+00 0.37362514E+02</pdfrwt>
<pdfrwt beam="2">  1        2 0.14940183E+00 0.10558213E+03</pdfrwt>
<totfact> 0.49756744E+01</totfact>
</mgrwt>
</event>
<event>
13    1  0.2101801E-008  0.1279035E+03  0.7546771E-02  0.1324025E+00
          2   -1    0    0  503    0  0.00000000000E+00  0.00000000000E+00  0.19946515038E+03  0.19946515038E+03  0.00000000000E+00 0. -1.
          2   -1    0    0  502    0 -0.00000000000E+00 -0.00000000000E+00 -0.23759101674E+04  0.23759101674E+04  0.00000000000E+00 0. -1.
         24    2    1    2    0    0  0.17863359297E+02 -0.46677614384E+02 -0.51088856493E+02  0.10809028803E+03  0.81089702302E+02 0.  0.
         25    2    1    2    0    0 -0.19460818331E+03  0.11184275909E+03 -0.36750836880E+03  0.44840571107E+03  0.12499653120E+03 0.  0.
         24    2    1    2    0    0  0.10366990741E+02 -0.21085166877E+02 -0.12558791939E+03  0.15095256393E+03  0.80388384132E+02 0.  0.
        -11    1    5    5    0    0 -0.18425006006E+02 -0.41090609881E+02 -0.91853971309E+02  0.10229893016E+03  0.00000000000E+00 0.  1.
         12    1    5    5    0    0  0.28791996748E+02  0.20005443005E+02 -0.33733948077E+02  0.48653633774E+02  0.00000000000E+00 0. -1.
        -13    1    3    3    0    0 -0.30297888312E+02 -0.15859342036E+02 -0.48171997781E+01  0.34535288904E+02  0.00000000000E+00 0.  1.
         14    1    3    3    0    0  0.48161247609E+02 -0.30818272348E+02 -0.46271656715E+02  0.73554999129E+02  0.00000000000E+00 0. -1.
          5    1    4    4  501    0 -0.13774968107E+03  0.81482899042E+01 -0.21164421877E+03  0.25269890107E+03  0.47000000000E+01 0. -1.
         -5    1    4    4    0  501 -0.56858502242E+02  0.10369446919E+03 -0.15586415003E+03  0.19570681000E+03  0.47000000000E+01 0. -1.
          1    1    1    2  502    0  0.51613382806E+02  0.85220481180E+01 -0.17157655154E+04  0.17165628070E+04  0.00000000000E+00 0. -1.
          1    1    1    2  503    0  0.11476445047E+03 -0.52602025947E+02  0.83505643112E+02  0.15136394768E+03  0.00000000000E+00 0. -1.
<mgrwt>
<rscale>  0 0.81798021E+02</rscale>
<asrwt>0</asrwt>
<pdfrwt beam="1">  1        2 0.29333111E-01 0.12790355E+03</pdfrwt>
<pdfrwt beam="2">  1        2 0.34939854E+00 0.52312203E+02</pdfrwt>
<totfact> 0.17925141E+02</totfact>
</mgrwt>
</event>
<event>
13    1  0.2101801E-008  0.2115769E+03  0.7546771E-02  0.1280258E+00
          2   -1    0    0  503    0  0.00000000000E+00  0.00000000000E+00  0.12896517704E+04  0.12896517704E+04  0.00000000000E+00 0. -1.
          2   -1    0    0  502    0 -0.00000000000E+00 -0.00000000000E+00 -0.12831200944E+04  0.12831200944E+04  0.00000000000E+00 0. -1.
         24    2    1    2    0    0  0.26349357363E+02 -0.44318417554E+02 -0.12936325184E+03  0.16125684010E+03  0.81305023126E+02 0.  0.
         25    2    1    2    0    0 -0.26038070492E+03  0.27862059044E+03 -0.31905420432E+03  0.51268762115E+03  0.12500186669E+03 0.  0.
         24    2    1    2    0    0  0.14823684197E+03 -0.68155549288E+02  0.75868150625E+02  0.19689487018E+03  0.79951694226E+02 0.  0.
        -13    1    5    5    0    0  0.72748376191E+02  0.94520020747E+01  0.28054195419E+02  0.78541100465E+02  0.00000000000E+00 0.  1.
         14    1    5    5    0    0  0.75488465775E+02 -0.77607551363E+02  0.47813955206E+02  0.11835376972E+03  0.00000000000E+00 0. -1.
        -13    1    3    3    0    0 -0.28752928968E+02 -0.67435271052E+01 -0.37385341401E+02  0.47643150963E+02  0.00000000000E+00 0.  1.
         14    1    3    3    0    0  0.55102286331E+02 -0.37574890449E+02 -0.91977910440E+02  0.11361368914E+03  0.00000000000E+00 0. -1.
          5    1    4    4  501    0 -0.20199234023E+03  0.12772329310E+03 -0.20159428003E+03  0.31269232298E+03  0.47000000000E+01 0.  1.
         -5    1    4    4    0  501 -0.58388364694E+02  0.15089729735E+03 -0.11745992429E+03  0.19999529818E+03  0.47000000000E+01 0.  1.
          1    1    1    2  502    0  0.31683742601E+02  0.35094640274E+02 -0.65012479030E+03  0.65184180311E+03  0.00000000000E+00 0. -1.
          1    1    1    2  503    0  0.54110762990E+02 -0.20124126388E+03  0.10292057719E+04  0.10500907303E+04  0.00000000000E+00 0. -1.
<mgrwt>
<rscale>  0 0.10001785E+03</rscale>
<asrwt>0</asrwt>
<pdfrwt beam="1">  1        2 0.18965467E+00 0.21157694E+03</pdfrwt>
<pdfrwt beam="2">  1        2 0.18869413E+00 0.47281004E+02</pdfrwt>
<totfact> 0.65841302E+01</totfact>
</mgrwt>
</event>
<event>
13    1  0.2101801E-008  0.6381001E+02  0.7546771E-02  0.1437560E+00
         -1   -1    0    0    0  501 -0.00000000000E+00  0.00000000000E+00  0.91192035419E+03  0.91192035419E+03  0.00000000000E+00 0.  1.
          2   -1    0    0  503    0  0.00000000000E+00 -0.00000000000E+00 -0.13422616985E+04  0.13422616985E+04  0.00000000000E+00 0. -1.
         24    2    1    2    0    0 -0.32319632083E+03 -0.11875594405E+03 -0.96186338291E+02  0.36648664562E+03  0.80633824782E+02 0.  0.
         25    2    1    2    0    0  0.16349160879E+03  0.10714785465E+01  0.29534062421E+02  0.20791472358E+03  0.12500246888E+03 0.  0.
         24    2    1    2    0    0  0.19648801573E+03  0.21580638129E+03 -0.17501054600E+03  0.35029429898E+03  0.83051009362E+02 0.  0.
        -11    1    3    3    0    0 -0.48150300545E+02 -0.50536932854E+02 -0.26503551128E+02  0.74665060418E+02  0.00000000000E+00 0.  1.
         12    1    3    3    0    0 -0.27504602029E+03 -0.68219011197E+02 -0.69682787163E+02  0.29182158520E+03  0.00000000000E+00 0. -1.
        -13    1    5    5    0    0  0.93011755229E+02  0.13198024417E+03 -0.53709555204E+02  0.17016077040E+03  0.00000000000E+00 0.  1.
         14    1    5    5    0    0  0.10347626050E+03  0.83826137120E+02 -0.12130099080E+03  0.18013352858E+03  0.00000000000E+00 0. -1.
          5    1    4    4  502    0  0.12684135398E+03 -0.23054597822E+02  0.71092335896E+02  0.14729716149E+03  0.47000000000E+01 0.  1.
         -5    1    4    4    0  502  0.36650254808E+02  0.24126076369E+02 -0.41558273475E+02  0.60617562082E+02  0.47000000000E+01 0.  1.
          1    1    1    2  503    0 -0.26379144923E+02 -0.57927131036E+02 -0.75698948872E+03  0.75966077813E+03  0.00000000000E+00 0. -1.
         -2    1    1    2    0  501 -0.10404158768E+02 -0.40194784751E+02  0.56831096630E+03  0.56982560636E+03  0.00000000000E+00 0.  1.
<mgrwt>
<rscale>  0 0.51471919E+02</rscale>
<asrwt>0</asrwt>
<pdfrwt beam="2">  1        2 0.19739143E+00 0.63810011E+02</pdfrwt>
<pdfrwt beam="1">  1       -1 0.13410594E+00 0.41519480E+02</pdfrwt>
<totfact> 0.12893393E+01</totfact>
</mgrwt>
</event>
<event>
13    1  0.2101801E-008  0.4273566E+02  0.7546771E-02  0.1490412E+00
          2   -1    0    0  502    0  0.00000000000E+00  0.00000000000E+00  0.12827713188E+04  0.12827713188E+04  0.00000000000E+00 0. -1.
          2   -1    0    0  503    0 -0.00000000000E+00 -0.00000000000E+00 -0.84273861539E+03  0.84273861539E+03  0.00000000000E+00 0. -1.
         24    2    1    2    0    0 -0.58839142555E+02  0.24075633431E+01 -0.15140491265E+03  0.17942009583E+03  0.76159583482E+02 0.  0.
         25    2    1    2    0    0 -0.64185589639E+01 -0.21378242345E+02  0.83246481413E+03  0.84209280448E+03  0.12499758973E+03 0.  0.
         24    2    1    2    0    0  0.95804755113E+02 -0.16519964840E+02  0.74401826679E+02  0.14629752730E+03  0.80099153189E+02 0.  0.
        -11    1    5    5    0    0  0.70933604840E+02  0.39614607790E+01  0.86452529028E+02  0.11189865612E+03  0.00000000000E+00 0.  1.
         12    1    5    5    0    0  0.24871150272E+02 -0.20481425619E+02 -0.12050702350E+02  0.34398871179E+02  0.00000000000E+00 0. -1.
        -13    1    3    3    0    0  0.11016224303E+02  0.19561462994E+02 -0.52732034726E+02  0.57312088766E+02  0.00000000000E+00 0.  1.
         14    1    3    3    0    0 -0.69855366858E+02 -0.17153899651E+02 -0.98672877923E+02  0.12210800707E+03  0.00000000000E+00 0. -1.
          5    1    4    4  501    0  0.15158643648E+02 -0.41201017310E+02  0.78415300883E+03  0.78539502135E+03  0.47000000000E+01 0. -1.
         -5    1    4    4    0  501 -0.21577202612E+02  0.19822774965E+02  0.48311805304E+02  0.56697783128E+02  0.47000000000E+01 0. -1.
          1    1    1    2  502    0 -0.42547206673E+02 -0.50873843251E+01  0.31899787200E+03  0.32186299665E+03  0.00000000000E+00 0. -1.
          1    1    1    2  503    0  0.12000153080E+02  0.40578028167E+02 -0.63442689675E+03  0.63583650993E+03  0.00000000000E+00 0. -1.
<mgrwt>
<rscale>  0 0.42524931E+02</rscale>
<asrwt>0</asrwt>
<pdfrwt beam="1">  1        2 0.18864284E+00 0.42735656E+02</pdfrwt>
<pdfrwt beam="2">  1        2 0.12393215E+00 0.42315246E+02</pdfrwt>
<totfact> 0.12835840E+02</totfact>
</mgrwt>
</event>
<event>
13    1  0.2101801E-008  0.1500144E+03  0.7546771E-02  0.1349105E+00
          2   -1    0    0  503    0  0.00000000000E+00  0.00000000000E+00  0.31267888494E+04  0.31267888494E+04  0.00000000000E+00 0. -1.
          2   -1    0    0  502    0 -0.00000000000E+00 -0.00000000000E+00 -0.63342629515E+03  0.63342629515E+03  0.00000000000E+00 0. -1.
         24    2    1    2    0    0 -0.79140377401E+02 -0.59842606804E+02 -0.95317825328E+02  0.16440435764E+03  0.89994266833E+02 0.  0.
         25    2    1    2    0    0  0.10964762528E+03 -0.13806758863E+03  0.20986163133E+04  0.21097167186E+04  0.12501576506E+03 0.  0.
         24    2    1    2    0    0 -0.65827155615E+02 -0.52560636097E+02  0.13094451489E+03  0.17735455023E+03  0.84925470990E+02 0.  0.
        -11    1    3    3    0    0 -0.95433148043E+02 -0.38386931038E+02 -0.57113038286E+02  0.11765602986E+03  0.00000000000E+00 0.  1.
         12    1    3    3    0    0  0.16292770642E+02 -0.21455675765E+02 -0.38204787042E+02  0.46748327785E+02  0.00000000000E+00 0. -1.
        -13    1    5    5    0    0 -0.73802778995E+02 -0.63137805235E+02  0.13220570525E+03  0.16404749659E+03  0.00000000000E+00 0.  1.
         14    1    5    5    0    0  0.79756233799E+01  0.10577169139E+02 -0.12611903609E+01  0.13307053634E+02  0.00000000000E+00 0. -1.
          5    1    4    4  501    0  0.87425260343E+01  0.43856579127E+01  0.13594786952E+02  0.17394654036E+02  0.47000000000E+01 0.  1.
         -5    1    4    4    0  501  0.10090509925E+03 -0.14245324654E+03  0.20850215264E+04  0.20923220646E+04  0.47000000000E+01 0.  1.
          1    1    1    2  502    0  0.58019397598E+02  0.22272254498E+03 -0.44649697115E+03  0.50232571882E+03  0.00000000000E+00 0. -1.
          1    1    1    2  503    0 -0.22699489862E+02  0.27748286549E+02  0.80561652251E+03  0.80641379923E+03  0.00000000000E+00 0. -1.
<mgrwt>
<rscale>  0 0.73335135E+02</rscale>
<asrwt>0</asrwt>
<pdfrwt beam="1">  1        2 0.45982188E+00 0.35850164E+02</pdfrwt>
<pdfrwt beam="2">  1        2 0.93150927E-01 0.15001444E+03</pdfrwt>
<totfact> 0.23248190E+01</totfact>
</mgrwt>
</event>
<event>
13    1  0.2101801E-008  0.1338520E+03  0.7546771E-02  0.1334503E+00
          2   -1    0    0  502    0  0.00000000000E+00  0.00000000000E+00  0.13839246974E+04  0.13839246974E+04  0.00000000000E+00 0. -1.
          2   -1    0    0  503    0 -0.00000000000E+00 -0.00000000000E+00 -0.23366532880E+04  0.23366532880E+04  0.00000000000E+00 0. -1.
         24    2    1    2    0    0  0.45101563053E+03  0.49376278956E+03 -0.55591495648E+03  0.87322331508E+03  0.79124761086E+02 0.  0.
         25    2    1    2    0    0 -0.39900827429E+03 -0.44061150544E+03  0.43567707698E+03  0.74751933021E+03  0.12499812780E+03 0.  0.
         24    2    1    2    0    0 -0.34584436929E+02 -0.16467390082E+03  0.54944634683E+02  0.19367480250E+03  0.78596687916E+02 0.  0.
        -11    1    3    3    0    0  0.16851598418E+03  0.13038793985E+03 -0.17011789016E+03  0.27265133107E+03  0.00000000000E+00 0.  1.
         12    1    3    3    0    0  0.28249964636E+03  0.36337484972E+03 -0.38579706632E+03  0.60057198401E+03  0.00000000000E+00 0. -1.
        -13    1    5    5    0    0  0.25296382606E+02 -0.57613614588E+02  0.15258297268E+02  0.64746051573E+02  0.00000000000E+00 0.  1.
         14    1    5    5    0    0 -0.59880819535E+02 -0.10706028624E+03  0.39686337415E+02  0.12892875092E+03  0.00000000000E+00 0. -1.
          5    1    4    4  501    0 -0.27799993375E+03 -0.22111477131E+03  0.22938945456E+03  0.42286796654E+03  0.47000000000E+01 0. -1.
         -5    1    4    4    0  501 -0.12100834054E+03 -0.21949673412E+03  0.20628762242E+03  0.32465136367E+03  0.47000000000E+01 0. -1.
          1    1    1    2  502    0  0.45044974188E+02 -0.69709908444E+01  0.50512258497E+03  0.50717498978E+03  0.00000000000E+00 0. -1.
          1    1    1    2  503    0 -0.62467893505E+02  0.11849360754E+03 -0.13925579307E+04  0.13989855478E+04  0.00000000000E+00 0. -1.
<mgrwt>
<rscale>  0 0.78109736E+02</rscale>
<asrwt>0</asrwt>
<pdfrwt beam="1">  1        2 0.20351834E+00 0.45581185E+02</pdfrwt>
<pdfrwt beam="2">  1        2 0.34362548E+00 0.13385196E+03</pdfrwt>
<totfact> 0.18355107E+01</totfact>
</mgrwt>
</event>
<event>
13    1  0.2101801E-008  0.9029465E+02  0.7546771E-02  0.1303644E+00
          2   -1    0    0  502    0  0.00000000000E+00  0.00000000000E+00  0.20773717778E+03  0.20773717778E+03  0.00000000000E+00 0. -1.
          2   -1    0    0  503    0 -0.00000000000E+00 -0.00000000000E+00 -0.41971755800E+04  0.41971755800E+04  0.00000000000E+00 0. -1.
         24    2    1    2    0    0  0.32343332448E+02 -0.56461036113E+01 -0.14026407243E+04  0.14053225781E+04  0.80327935989E+02 0.  0.
         25    2    1    2    0    0 -0.73844095873E+02  0.20356223659E+02 -0.27115887297E+02  0.14906837660E+03  0.12497513042E+03 0.  0.
         24    2    1    2    0    0  0.56874823128E+01 -0.14272085760E+02 -0.10968039423E+04  0.10998071999E+04  0.79755559759E+02 0.  0.
        -11    1    3    3    0    0  0.17739539244E+02 -0.39434288278E+02 -0.10198160942E+04  0.10207323940E+04  0.00000000000E+00 0.  1.
         12    1    3    3    0    0  0.14603793204E+02  0.33788184667E+02 -0.38282463015E+03  0.38459018402E+03  0.00000000000E+00 0. -1.
        -11    1    5    5    0    0 -0.11057268837E+02  0.28935687060E+02 -0.28421601648E+03  0.28589907521E+03  0.00000000000E+00 0.  1.
         12    1    5    5    0    0  0.16744751150E+02 -0.43207772821E+02 -0.81258792581E+03  0.81390812473E+03  0.00000000000E+00 0. -1.
          5    1    4    4  501    0  0.14253157741E+02  0.24070934790E+02 -0.50324498858E+02  0.57768569245E+02  0.47000000000E+01 0.  1.
         -5    1    4    4    0  501 -0.88097253614E+02 -0.37147111309E+01  0.23208611561E+02  0.91299807359E+02  0.47000000000E+01 0.  1.
          1    1    1    2  502    0  0.11590930989E+03  0.56797880056E+02  0.11312867288E+03  0.17163642948E+03  0.00000000000E+00 0. -1.
          1    1    1    2  503    0 -0.80096028776E+02 -0.57235914343E+02 -0.15760065212E+04  0.15790781737E+04  0.00000000000E+00 0. -1.
<mgrwt>
<rscale>  0 0.89673649E+02</rscale>
<asrwt>0</asrwt>
<pdfrwt beam="1">  1        2 0.30549584E-01 0.89056920E+02</pdfrwt>
<pdfrwt beam="2">  1        2 0.61723173E+00 0.90294650E+02</pdfrwt>
<totfact> 0.14366156E+01</totfact>
</mgrwt>
</event>
<event>
13    1  0.2101801E-008  0.1055127E+03  0.7546771E-02  0.1287421E+00
          4   -1    0    0  503    0 -0.00000000000E+00  0.00000000000E+00  0.37131836870E+03  0.37131836870E+03  0.00000000000E+00 0. -1.
          2   -1    0    0  502    0  0.00000000000E+00 -0.00000000000E+00 -0.38289756597E+04  0.38289756597E+04  0.00000000000E+00 0. -1.
         24    2    1    2    0    0 -0.23910731116E+02 -0.40358725618E+02  0.17640952543E+03  0.20199485903E+03  0.86493078439E+02 0.  0.
         25    2    1    2    0    0  0.84025013124E+02  0.69658890599E+02 -0.65197534055E+03  0.67276488227E+03  0.12501271241E+03 0.  0.
         24    2    1    2    0    0 -0.15156460153E+02  0.13617578235E+02 -0.24765613416E+03  0.26413212824E+03  0.89538057040E+02 0.  0.
        -11    1    3    3    0    0  0.22914683302E+02  0.11157761708E+02  0.73119003371E+02  0.77433629717E+02  0.00000000000E+00 0.  1.
         12    1    3    3    0    0 -0.46825414418E+02 -0.51516487325E+02  0.10329052206E+03  0.12456122931E+03  0.00000000000E+00 0. -1.
        -13    1    5    5    0    0 -0.42456846677E+02  0.36567804702E+02 -0.14446297003E+03  0.15494946879E+03  0.00000000000E+00 0.  1.
         14    1    5    5    0    0  0.27300386524E+02 -0.22950226467E+02 -0.10319316413E+03  0.10918265944E+03  0.00000000000E+00 0. -1.
          5    1    4    4  501    0  0.10473680348E+03  0.82780233098E+02 -0.45469932209E+03  0.47391552887E+03  0.47000000000E+01 0.  1.
         -5    1    4    4    0  501 -0.20711790360E+02 -0.13121342499E+02 -0.19727601845E+03  0.19884935340E+03  0.47000000000E+01 0.  1.
          1    1    1    2  502    0 -0.10950562376E+03  0.17774478763E+02 -0.28847695348E+04  0.28869019177E+04  0.00000000000E+00 0. -1.
          3    1    1    2  503    0  0.64547801902E+02 -0.60692221979E+02  0.15033419308E+03  0.17450024111E+03  0.00000000000E+00 0. -1.
<mgrwt>
<rscale>  0 0.96687272E+02</rscale>
<asrwt>0</asrwt>
<pdfrwt beam="2">  1        2 0.56308466E+00 0.10551271E+03</pdfrwt>
<pdfrwt beam="1">  1        4 0.54605642E-01 0.88600026E+02</pdfrwt>
<totfact> 0.15265650E+00</totfact>
</mgrwt>
</event>
<event>
13    1  0.2101801E-008  0.2076834E+03  0.7546771E-02  0.1290077E+00
          2   -1    0    0  503    0  0.00000000000E+00  0.00000000000E+00  0.23755220492E+04  0.23755220492E+04  0.00000000000E+00 0. -1.
          2   -1    0    0  502    0 -0.00000000000E+00 -0.00000000000E+00 -0.35835129488E+03  0.35835129488E+03  0.00000000000E+00 0. -1.
         24    2    1    2    0    0  0.16019314955E+03 -0.12207286112E+03 -0.68917763721E+02  0.22786996225E+03  0.81310718594E+02 0.  0.
         25    2    1    2    0    0 -0.56439838460E+02  0.27516409298E+03  0.96793687955E+03  0.10155925395E+04  0.12500268014E+03 0.  0.
         24    2    1    2    0    0  0.64734989682E+02 -0.18820615986E+03 -0.80154007152E+02  0.22750383786E+03  0.75638309616E+02 0.  0.
        -13    1    3    3    0    0  0.16766711571E+03 -0.12496395760E+03 -0.67457924217E+02  0.21972442725E+03  0.00000000000E+00 0.  1.
         14    1    3    3    0    0 -0.74739661643E+01  0.28910964864E+01 -0.14598395035E+01  0.81455350036E+01  0.00000000000E+00 0. -1.
        -13    1    5    5    0    0  0.41217611770E+02 -0.30770754987E+02 -0.34388869561E+02  0.61873461453E+02  0.00000000000E+00 0.  1.
         14    1    5    5    0    0  0.23517377913E+02 -0.15743540487E+03 -0.45765137591E+02  0.16563037641E+03  0.00000000000E+00 0. -1.
          5    1    4    4  501    0 -0.48817576612E+02  0.98333526588E+02  0.20733186279E+03  0.23465129356E+03  0.47000000000E+01 0.  1.
         -5    1    4    4    0  501 -0.76222618476E+01  0.17683056639E+03  0.76060501675E+03  0.78094124593E+03  0.47000000000E+01 0.  1.
          1    1    1    2  502    0  0.28712568669E+02 -0.33214665898E+02 -0.26186655849E+01  0.43982758437E+02  0.00000000000E+00 0. -1.
          1    1    1    2  503    0 -0.19720086944E+03  0.68329593887E+02  0.12009243112E+04  0.12189242460E+04  0.00000000000E+00 0. -1.
<mgrwt>
<rscale>  0 0.95489707E+02</rscale>
<asrwt>0</asrwt>
<pdfrwt beam="1">  1        2 0.34934147E+00 0.20768340E+03</pdfrwt>
<pdfrwt beam="2">  1        2 0.52698721E-01 0.43904734E+02</pdfrwt>
<totfact> 0.80859338E+01</totfact>
</mgrwt>
</event>
<event>
13    1  0.2101801E-008  0.1377909E+03  0.7546771E-02  0.1318232E+00
          2   -1    0    0  502    0  0.00000000000E+00  0.00000000000E+00  0.27533400089E+04  0.27533400089E+04  0.00000000000E+00 0. -1.
          2   -1    0    0  503    0 -0.00000000000E+00 -0.00000000000E+00 -0.20339979486E+04  0.20339979486E+04  0.00000000000E+00 0. -1.
         24    2    1    2    0    0  0.71662820121E+03  0.33144094504E+03  0.14866969637E+03  0.80917955724E+03  0.96227846411E+02 0.  0.
         25    2    1    2    0    0 -0.63860854025E+03 -0.45527533743E+03  0.31302255723E+03  0.85364276100E+03  0.12500536598E+03 0.  0.
         24    2    1    2    0    0  0.43475748303E+02  0.16833674664E+02  0.11852223718E+03  0.16388372455E+03  0.10313506277E+03 0.  0.
        -11    1    5    5    0    0  0.53700004206E+01 -0.32179878163E+02  0.89675239311E+02  0.95425520740E+02  0.00000000000E+00 0.  1.
         12    1    5    5    0    0  0.38105747882E+02  0.49013552827E+02  0.28846997869E+02  0.68458203807E+02  0.00000000000E+00 0. -1.
        -13    1    3    3    0    0  0.37512027649E+03  0.12513856596E+03  0.94062189732E+02  0.40647580256E+03  0.00000000000E+00 0.  1.
         14    1    3    3    0    0  0.34150792471E+03  0.20630237908E+03  0.54607506642E+02  0.40270375468E+03  0.00000000000E+00 0. -1.
          5    1    4    4  501    0 -0.12698265075E+03 -0.34600022147E+02  0.57026504543E+02  0.14351260343E+03  0.47000000000E+01 0. -1.
         -5    1    4    4    0  501 -0.51162588950E+03 -0.42067531528E+03  0.25599605269E+03  0.71013015757E+03  0.47000000000E+01 0. -1.
          1    1    1    2  502    0 -0.89599956465E+02  0.14696640015E+03  0.15446344392E+04  0.15541952341E+04  0.00000000000E+00 0. -1.
          1    1    1    2  503    0 -0.31895452795E+02 -0.39965682415E+02 -0.14055068697E+04  0.14064366806E+04  0.00000000000E+00 0. -1.
<mgrwt>
<rscale>  0 0.83938383E+02</rscale>
<asrwt>0</asrwt>
<pdfrwt beam="1">  1        2 0.40490294E+00 0.13779092E+03</pdfrwt>
<pdfrwt beam="2">  1        2 0.29911734E+00 0.51132922E+02</pdfrwt>
<totfact> 0.55084326E+00</totfact>
</mgrwt>
</event>
<event>
13    1  0.2101801E-008  0.5980570E+02  0.7546771E-02  0.1451489E+00
         -3   -1    0    0    0  501 -0.00000000000E+00  0.00000000000E+00  0.10905093871E+04  0.10905093871E+04  0.00000000000E+00 0.  1.
          2   -1    0    0  503    0  0.00000000000E+00 -0.00000000000E+00 -0.29392302763E+04  0.29392302763E+04  0.00000000000E+00 0. -1.
         24    2    1    2    0    0 -0.11815025070E+03  0.75125450050E+03  0.24911727049E+03  0.80540730329E+03  0.90987380872E+02 0.  0.
         25    2    1    2    0    0  0.69448940846E+02 -0.59015655533E+03 -0.48114540700E+03  0.77474766912E+03  0.12500053181E+03 0.  0.
         24    2    1    2    0    0 -0.15013817819E+01 -0.15238689041E+03 -0.10753394925E+04  0.10891602934E+04  0.81799156807E+02 0.  0.
        -11    1    3    3    0    0 -0.91960531084E+02  0.67858979686E+03  0.19821443024E+03  0.71290238605E+03  0.00000000000E+00 0.  1.
         12    1    3    3    0    0 -0.26189719619E+02  0.72664703641E+02  0.50902840246E+02  0.92504917243E+02  0.00000000000E+00 0. -1.
        -13    1    5    5    0    0  0.27829959661E+02 -0.13483451225E+03 -0.80819056400E+03  0.81983342216E+03  0.00000000000E+00 0.  1.
         14    1    5    5    0    0 -0.29331341443E+02 -0.17552378162E+02 -0.26714892848E+03  0.26932687122E+03  0.00000000000E+00 0. -1.
          5    1    4    4  502    0  0.76098859243E+02 -0.37637395232E+03 -0.37168095561E+03  0.53443167115E+03  0.47000000000E+01 0.  1.
         -5    1    4    4    0  502 -0.66499183969E+01 -0.21378260300E+03 -0.10946445138E+03  0.24031599797E+03  0.47000000000E+01 0.  1.
          1    1    1    2  503    0  0.12672646473E+02  0.37883464227E+02 -0.94828094342E+03  0.94912196291E+03  0.00000000000E+00 0. -1.
         -4    1    1    2    0  501  0.37530045165E+02 -0.46594518990E+02  0.40692768320E+03  0.41130243476E+03  0.00000000000E+00 0.  1.
<mgrwt>
<rscale>  0 0.48877916E+02</rscale>
<asrwt>0</asrwt>
<pdfrwt beam="2">  1        2 0.43223974E+00 0.39946875E+02</pdfrwt>
<pdfrwt beam="1">  1       -3 0.16036903E+00 0.59805696E+02</pdfrwt>
<totfact> 0.65632606E-01</totfact>
</mgrwt>
</event>
<event>
13    1  0.2101801E-008  0.2684399E+03  0.7546771E-02  0.1269337E+00
          2   -1    0    0  502    0  0.00000000000E+00  0.00000000000E+00  0.23688751911E+04  0.23688751911E+04  0.00000000000E+00 0. -1.
          2   -1    0    0  503    0 -0.00000000000E+00 -0.00000000000E+00 -0.24972252955E+04  0.24972252955E+04  0.00000000000E+00 0. -1.
         24    2    1    2    0    0  0.57557011951E+02  0.42029446203E+03 -0.96787497852E+03  0.10598332481E+04  0.80649210876E+02 0.  0.
         25    2    1    2    0    0 -0.36159528767E+03 -0.73237306740E+03 -0.73825771945E+03  0.11080480467E+04  0.12499820653E+03 0.  0.
         24    2    1    2    0    0  0.90793641775E+02  0.22955491236E+03 -0.11696759143E+02  0.26338549547E+03  0.91083268894E+02 0.  0.
        -13    1    3    3    0    0  0.10265708234E+02  0.29639599900E+03 -0.72053565236E+03  0.77918393163E+03  0.00000000000E+00 0.  1.
         14    1    3    3    0    0  0.47291303717E+02  0.12389846303E+03 -0.24733932616E+03  0.28064931643E+03  0.00000000000E+00 0. -1.
        -13    1    5    5    0    0  0.48231008654E+02  0.18270604845E+03  0.24378138586E+02  0.19053090032E+03  0.00000000000E+00 0.  1.
         14    1    5    5    0    0  0.42562633121E+02  0.46848863912E+02 -0.36074897729E+02  0.72854595148E+02  0.00000000000E+00 0. -1.
          5    1    4    4  501    0 -0.32219595110E+03 -0.54975581932E+03 -0.53610690879E+03  0.83275110293E+03  0.47000000000E+01 0.  1.
         -5    1    4    4    0  501 -0.39399336564E+02 -0.18261724808E+03 -0.20215081066E+03  0.27529694380E+03  0.47000000000E+01 0.  1.
          1    1    1    2  502    0  0.24415996043E+03  0.11003310163E+03  0.20022062027E+04  0.20200373877E+04  0.00000000000E+00 0. -1.
          1    1    1    2  503    0 -0.30915326489E+02 -0.27509408621E+02 -0.41272684999E+03  0.41479630866E+03  0.00000000000E+00 0. -1.
<mgrwt>
<rscale>  0 0.10539810E+03</rscale>
<asrwt>0</asrwt>
<pdfrwt beam="1">  1        2 0.34836400E+00 0.26843991E+03</pdfrwt>
<pdfrwt beam="2">  1        2 0.36723901E+00 0.41382665E+02</pdfrwt>
<totfact> 0.49858639E+00</totfact>
</mgrwt>
</event>
<event>
13    1  0.2101801E-008  0.1567387E+03  0.7546771E-02  0.1247389E+00
          2   -1    0    0  503    0  0.00000000000E+00  0.00000000000E+00  0.79419619216E+03  0.79419619216E+03  0.00000000000E+00 0. -1.
          2   -1    0    0  502    0 -0.00000000000E+00 -0.00000000000E+00 -0.28372273795E+04  0.28372273795E+04  0.00000000000E+00 0. -1.
         24    2    1    2    0    0 -0.20303117456E+02  0.27903811346E+02 -0.19753664619E+03  0.21672016231E+03  0.82195272975E+02 0.  0.
         25    2    1    2    0    0  0.17590184430E+03 -0.80596185240E+02  0.21310327275E+03  0.31380743187E+03  0.12499958213E+03 0.  0.
         24    2    1    2    0    0  0.55474295482E+02 -0.39259926691E+02 -0.17790130502E+03  0.20568865008E+03  0.77718769539E+02 0.  0.
        -11    1    3    3    0    0 -0.37125881256E+02  0.48462437059E+02 -0.15476648261E+03  0.16637188165E+03  0.00000000000E+00 0.  1.
         12    1    3    3    0    0  0.16822763800E+02 -0.20558625713E+02 -0.42770163580E+02  0.50348280663E+02  0.00000000000E+00 0. -1.
        -13    1    5    5    0    0  0.64469482685E+02 -0.25924546969E+01 -0.98241395067E+02  0.11753470434E+03  0.00000000000E+00 0.  1.
         14    1    5    5    0    0 -0.89951872031E+01 -0.36667471994E+02 -0.79659909954E+02  0.88153945738E+02  0.00000000000E+00 0. -1.
          5    1    4    4  501    0  0.11051475918E+03 -0.21716424992E+02  0.40081188856E+02  0.11963990476E+03  0.47000000000E+01 0. -1.
         -5    1    4    4    0  501  0.65387085125E+02 -0.58879760248E+02  0.17302208390E+03  0.19416752711E+03  0.47000000000E+01 0. -1.
          1    1    1    2  502    0 -0.25812550114E+03  0.17602507094E+02 -0.23770635048E+04  0.23911021577E+04  0.00000000000E+00 0. -1.
          1    1    1    2  503    0  0.47052478815E+02  0.74349793490E+02  0.49636699589E+03  0.50410516975E+03  0.00000000000E+00 0. -1.
<mgrwt>
<rscale>  0 0.11743538E+03</rscale>
<asrwt>0</asrwt>
<pdfrwt beam="1">  1        2 0.11679356E+00 0.87987656E+02</pdfrwt>
<pdfrwt beam="2">  1        2 0.41723932E+00 0.15673867E+03</pdfrwt>
<totfact> 0.20304890E+01</totfact>
</mgrwt>
</event>
<event>
13    1  0.2101801E-008  0.9342397E+02  0.7546771E-02  0.1327281E+00
          2   -1    0    0  502    0  0.00000000000E+00  0.00000000000E+00  0.17479780518E+04  0.17479780518E+04  0.00000000000E+00 0. -1.
          2   -1    0    0  503    0 -0.00000000000E+00 -0.00000000000E+00 -0.47784436542E+03  0.47784436542E+03  0.00000000000E+00 0. -1.
         24    2    1    2    0    0  0.54186861244E+02  0.30644176143E+02 -0.12269983135E+03  0.16235326881E+03  0.86186157919E+02 0.  0.
         25    2    1    2    0    0 -0.13748516783E+03  0.14862321665E+00  0.30450864380E+03  0.35672607773E+03  0.12500314764E+03 0.  0.
         24    2    1    2    0    0 -0.84908226643E+01 -0.16748142475E+02 -0.67884715455E+02  0.10656682705E+03  0.79972243238E+02 0.  0.
        -11    1    5    5    0    0 -0.19459313941E+02  0.10124943142E+02  0.95098902688E+01  0.23908521193E+02  0.00000000000E+00 0.  1.
         12    1    5    5    0    0  0.10968491277E+02 -0.26873085617E+02 -0.77394605723E+02  0.82658305853E+02  0.00000000000E+00 0. -1.
        -13    1    3    3    0    0  0.77687787264E+02  0.25446796714E+02 -0.87877787418E+02  0.12002265317E+03  0.00000000000E+00 0.  1.
         14    1    3    3    0    0 -0.23500926019E+02  0.51973794290E+01 -0.34822043928E+02  0.42330615635E+02  0.00000000000E+00 0. -1.
          5    1    4    4  501    0 -0.53170794606E+02 -0.15349718812E+02  0.19179234296E+02  0.58759512377E+02  0.47000000000E+01 0.  1.
         -5    1    4    4    0  501 -0.84314373227E+02  0.15498342029E+02  0.28532940951E+03  0.29796656535E+03  0.47000000000E+01 0.  1.
          1    1    1    2  502    0  0.23939975849E+02  0.65335005167E+02  0.13649765572E+04  0.13667489846E+04  0.00000000000E+00 0. -1.
          1    1    1    2  503    0  0.67849153404E+02 -0.79379662052E+02 -0.20876696785E+03  0.23342725897E+03  0.00000000000E+00 0. -1.
<mgrwt>
<rscale>  0 0.80627008E+02</rscale>
<asrwt>0</asrwt>
<pdfrwt beam="1">  1        2 0.25705559E+00 0.69582939E+02</pdfrwt>
<pdfrwt beam="2">  1        2 0.70271231E-01 0.93423970E+02</pdfrwt>
<totfact> 0.13579740E+02</totfact>
</mgrwt>
</event>
<event>
13    1  0.2101801E-008  0.1653863E+03  0.7546771E-02  0.1192910E+00
          2   -1    0    0  502    0  0.00000000000E+00  0.00000000000E+00  0.19642534846E+04  0.19642534846E+04  0.00000000000E+00 0. -1.
          2   -1    0    0  503    0 -0.00000000000E+00 -0.00000000000E+00 -0.26220585903E+04  0.26220585903E+04  0.00000000000E+00 0. -1.
         24    2    1    2    0    0 -0.40524406666E+03  0.24125045686E+03  0.12767553419E+02  0.47875411375E+03  0.81350811397E+02 0.  0.
         25    2    1    2    0    0  0.43685736786E+03 -0.36940713233E+03 -0.22051611487E+03  0.62574417720E+03  0.12498971600E+03 0.  0.
         24    2    1    2    0    0 -0.34129639191E+02  0.10587437335E+03  0.11655996168E+04  0.11743182052E+04  0.89591100163E+02 0.  0.
        -11    1    5    5    0    0 -0.50870055177E+02  0.37197005180E+02  0.34730917353E+03  0.35298022852E+03  0.00000000000E+00 0.  1.
         12    1    5    5    0    0  0.16740415985E+02  0.68677368171E+02  0.81829044325E+03  0.82133797668E+03  0.00000000000E+00 0. -1.
        -13    1    3    3    0    0 -0.19247750661E+03  0.79898900275E+02 -0.21622325091E+02  0.20952076211E+03  0.00000000000E+00 0.  1.
         14    1    3    3    0    0 -0.21276656005E+03  0.16135155659E+03  0.34389878510E+02  0.26923335164E+03  0.00000000000E+00 0. -1.
          5    1    4    4  501    0  0.36603951066E+03 -0.26338807129E+03 -0.21074262952E+03  0.49778785176E+03  0.47000000000E+01 0.  1.
         -5    1    4    4    0  501  0.70817857195E+02 -0.10601906104E+03 -0.97734853463E+01  0.12795632543E+03  0.47000000000E+01 0.  1.
          1    1    1    2  502    0 -0.12860556462E+03  0.91007517857E+02  0.32501417884E+03  0.36118689900E+03  0.00000000000E+00 0. -1.
          1    1    1    2  503    0  0.13112190261E+03 -0.68725215738E+02 -0.19406703399E+04  0.19463086797E+04  0.00000000000E+00 0. -1.
<mgrwt>
<rscale>  0 0.15632460E+03</rscale>
<asrwt>0</asrwt>
<pdfrwt beam="1">  1        2 0.28886080E+00 0.16538628E+03</pdfrwt>
<pdfrwt beam="2">  1        2 0.38559685E+00 0.14775942E+03</pdfrwt>
<totfact> 0.60910089E+00</totfact>
</mgrwt>
</event>
<event>
13    1  0.2101801E-008  0.1058588E+03  0.7546771E-02  0.1419757E+00
          2   -1    0    0  503    0  0.00000000000E+00  0.00000000000E+00  0.25634885049E+04  0.25634885049E+04  0.00000000000E+00 0. -1.
          2   -1    0    0  502    0 -0.00000000000E+00 -0.00000000000E+00 -0.12594029108E+04  0.12594029108E+04  0.00000000000E+00 0. -1.
         24    2    1    2    0    0  0.51985411165E+02 -0.47282558965E+02 -0.62142787068E+03  0.63062100474E+03  0.81068673362E+02 0.  0.
         25    2    1    2    0    0 -0.11246361605E+03  0.16272421155E+03  0.88236429121E+03  0.91286309528E+03  0.12500021746E+03 0.  0.
         24    2    1    2    0    0  0.32042150466E+02  0.43863856993E+00  0.14317302170E+03  0.16746244596E+03  0.80735771833E+02 0.  0.
        -11    1    5    5    0    0 -0.19015195277E+02 -0.23564702553E+02  0.45170210287E+02  0.54380334269E+02  0.00000000000E+00 0.  1.
         12    1    5    5    0    0  0.51057345742E+02  0.24003341123E+02  0.98002811413E+02  0.11308211169E+03  0.00000000000E+00 0. -1.
        -11    1    3    3    0    0 -0.15494402684E+02 -0.27475439458E+02 -0.29628847621E+03  0.29796281215E+03  0.00000000000E+00 0.  1.
         12    1    3    3    0    0  0.67479813849E+02 -0.19807119507E+02 -0.32513939447E+03  0.33265819259E+03  0.00000000000E+00 0. -1.
          5    1    4    4  501    0 -0.90680568455E+02  0.12223595512E+03  0.82626421936E+03  0.84017810280E+03  0.47000000000E+01 0.  1.
         -5    1    4    4    0  501 -0.21783047595E+02  0.40488256428E+02  0.56100071844E+02  0.72684992481E+02  0.47000000000E+01 0.  1.
          1    1    1    2  502    0  0.47479489656E+02 -0.94474013861E+02 -0.60123444534E+03  0.61046089105E+03  0.00000000000E+00 0. -1.
          1    1    1    2  503    0 -0.19043435238E+02 -0.21406277293E+02  0.15012105972E+04  0.15014839787E+04  0.00000000000E+00 0. -1.
<mgrwt>
<rscale>  0 0.55072349E+02</rscale>
<asrwt>0</asrwt>
<pdfrwt beam="1">  1        2 0.37698360E+00 0.28651023E+02</pdfrwt>
<pdfrwt beam="2">  1        2 0.18520631E+00 0.10585883E+03</pdfrwt>
<totfact> 0.19144943E+01</totfact>
</mgrwt>
</event>
<event>
13    1  0.2101801E-008  0.6429321E+02  0.7546771E-02  0.1441399E+00
          2   -1    0    0  502    0  0.00000000000E+00  0.00000000000E+00  0.14509684970E+04  0.14509684970E+04  0.00000000000E+00 0. -1.
          2   -1    0    0  503    0 -0.00000000000E+00 -0.00000000000E+00 -0.22847183171E+04  0.22847183171E+04  0.00000000000E+00 0. -1.
         24    2    1    2    0    0  0.22452122992E+03  0.84994550668E+02 -0.44122581644E+03  0.50862155114E+03  0.79886199484E+02 0.  0.
         25    2    1    2    0    0 -0.11397373361E+03 -0.10415787072E+02  0.60130063770E+03  0.62472938198E+03  0.12500337294E+03 0.  0.
         24    2    1    2    0    0 -0.12743941806E+02 -0.42833845873E+02  0.20248290928E+03  0.22390641804E+03  0.84484371843E+02 0.  0.
        -11    1    3    3    0    0  0.25572220137E+02 -0.11801338446E+02 -0.82286931202E+02  0.86973266458E+02  0.00000000000E+00 0.  1.
         12    1    3    3    0    0  0.19894900979E+03  0.96795889114E+02 -0.35893888523E+03  0.42164828468E+03  0.00000000000E+00 0. -1.
        -13    1    5    5    0    0 -0.90634106966E+01 -0.37325616193E+02  0.21023171321E+03  0.21371176916E+03  0.00000000000E+00 0.  1.
         14    1    5    5    0    0 -0.36805311092E+01 -0.55082296800E+01 -0.77488039328E+01  0.10194648883E+02  0.00000000000E+00 0. -1.
          5    1    4    4  501    0 -0.13626789463E+03  0.10132872723E+02  0.52448053492E+03  0.54200879672E+03  0.47000000000E+01 0. -1.
         -5    1    4    4    0  501  0.22294161022E+02 -0.20548659795E+02  0.76820102782E+02  0.82720585265E+02  0.47000000000E+01 0. -1.
          1    1    1    2  502    0 -0.39843075504E+02 -0.39789632066E+01  0.58980421082E+03  0.59116183056E+03  0.00000000000E+00 0. -1.
          1    1    1    2  503    0 -0.57960479006E+02 -0.27765954516E+02 -0.17861117614E+04  0.17872676323E+04  0.00000000000E+00 0. -1.
<mgrwt>
<rscale>  0 0.50738361E+02</rscale>
<asrwt>0</asrwt>
<pdfrwt beam="1">  1        2 0.21337772E+00 0.40041264E+02</pdfrwt>
<pdfrwt beam="2">  1        2 0.33598798E+00 0.64293208E+02</pdfrwt>
<totfact> 0.19944743E+01</totfact>
</mgrwt>
</event>
<event>
13    1  0.2101801E-008  0.1329777E+03  0.7546771E-02  0.1247025E+00
          2   -1    0    0  502    0  0.00000000000E+00  0.00000000000E+00  0.18049422729E+04  0.18049422729E+04  0.00000000000E+00 0. -1.
          2   -1    0    0  503    0 -0.00000000000E+00 -0.00000000000E+00 -0.14260342322E+04  0.14260342322E+04  0.00000000000E+00 0. -1.
         24    2    1    2    0    0 -0.20754236064E+02  0.10639016052E+02 -0.20550089238E+03  0.22243889615E+03  0.81881125878E+02 0.  0.
         25    2    1    2    0    0 -0.96948322479E+02 -0.34281732314E+03  0.37675188635E+03  0.53337680076E+03  0.12500453369E+03 0.  0.
         24    2    1    2    0    0 -0.53923598315E+02  0.13676553043E+03  0.17884623236E+02  0.16311715241E+03  0.68372369359E+02 0.  0.
        -11    1    5    5    0    0 -0.36421761327E+02  0.13971506702E+03  0.16079346201E+02  0.14527694251E+03  0.00000000000E+00 0.  1.
         12    1    5    5    0    0 -0.17501836988E+02 -0.29495365888E+01  0.18052770349E+01  0.17840209898E+02  0.00000000000E+00 0. -1.
        -13    1    3    3    0    0 -0.47550308517E+02 -0.64297983429E+00 -0.17013550558E+03  0.17665654678E+03  0.00000000000E+00 0.  1.
         14    1    3    3    0    0  0.26796072453E+02  0.11281995887E+02 -0.35365386806E+02  0.45782349372E+02  0.00000000000E+00 0. -1.
          5    1    4    4  501    0 -0.11054377683E+03 -0.20093564387E+03  0.27542421627E+03  0.35843499896E+03  0.47000000000E+01 0.  1.
         -5    1    4    4    0  501  0.13595454349E+02 -0.14188167927E+03  0.10132767008E+03  0.17494180180E+03  0.47000000000E+01 0.  1.
          1    1    1    2  502    0  0.89318344799E+02  0.94816034913E+02  0.12435130367E+04  0.12503169677E+04  0.00000000000E+00 0. -1.
          1    1    1    2  503    0  0.82307812058E+02  0.10059674175E+03 -0.10537406132E+04  0.10617266882E+04  0.00000000000E+00 0. -1.
<mgrwt>
<rscale>  0 0.11765019E+03</rscale>
<asrwt>0</asrwt>
<pdfrwt beam="1">  1        2 0.26543269E+00 0.13297768E+03</pdfrwt>
<pdfrwt beam="2">  1        2 0.20971092E+00 0.10408940E+03</pdfrwt>
<totfact> 0.29993322E+01</totfact>
</mgrwt>
</event>
<event>
13    1  0.2101801E-008  0.1037168E+03  0.7546771E-02  0.1382824E+00
          2   -1    0    0  502    0  0.00000000000E+00  0.00000000000E+00  0.86133148892E+03  0.86133148892E+03  0.00000000000E+00 0. -1.
          2   -1    0    0  503    0 -0.00000000000E+00 -0.00000000000E+00 -0.20443646984E+04  0.20443646984E+04  0.00000000000E+00 0. -1.
         24    2    1    2    0    0 -0.22250343264E+01 -0.14996518965E+02 -0.47513373242E+03  0.48284949586E+03  0.84626979207E+02 0.  0.
         25    2    1    2    0    0 -0.52540203480E+01  0.79914161092E+02  0.37972989208E+03  0.40771909867E+03  0.12500477835E+03 0.  0.
         24    2    1    2    0    0 -0.37442611919E+02  0.36712340741E+02 -0.95204241347E+02  0.13637571215E+03  0.82369546224E+02 0.  0.
        -13    1    5    5    0    0 -0.12993614579E+02 -0.32304679869E+01 -0.87976873743E+02  0.88989888509E+02  0.00000000000E+00 0.  1.
         14    1    5    5    0    0 -0.24448997340E+02  0.39942808728E+02 -0.72273676036E+01  0.47385823645E+02  0.00000000000E+00 0. -1.
        -13    1    3    3    0    0  0.26259125846E+02 -0.21759669333E+02 -0.41027010442E+03  0.41168505375E+03  0.00000000000E+00 0.  1.
         14    1    3    3    0    0 -0.28484160172E+02  0.67631503679E+01 -0.64863628004E+02  0.71164442114E+02  0.00000000000E+00 0. -1.
          5    1    4    4  501    0 -0.49495233948E+02  0.44123272442E+01  0.21935801386E+03  0.22496505298E+03  0.47000000000E+01 0.  1.
         -5    1    4    4    0  501  0.44241213600E+02  0.75501833848E+02  0.16037187821E+03  0.18275404569E+03  0.47000000000E+01 0.  1.
          1    1    1    2  502    0 -0.35439300274E+02 -0.16651437048E+02  0.43991016353E+03  0.44164937036E+03  0.00000000000E+00 0. -1.
          1    1    1    2  503    0  0.80360966867E+02 -0.84978545820E+02 -0.14323352913E+04  0.14371025102E+04  0.00000000000E+00 0. -1.
<mgrwt>
<rscale>  0 0.63727261E+02</rscale>
<asrwt>0</asrwt>
<pdfrwt beam="1">  1        2 0.12666640E+00 0.39156281E+02</pdfrwt>
<pdfrwt beam="2">  1        2 0.30064186E+00 0.10371679E+03</pdfrwt>
<totfact> 0.49932385E+01</totfact>
</mgrwt>
</event>
<event>
13    1  0.2101801E-008  0.1746144E+03  0.7546771E-02  0.1201430E+00
          2   -1    0    0  502    0  0.00000000000E+00  0.00000000000E+00  0.36040498026E+03  0.36040498026E+03  0.00000000000E+00 0. -1.
          2   -1    0    0  503    0 -0.00000000000E+00 -0.00000000000E+00 -0.19980155200E+04  0.19980155200E+04  0.00000000000E+00 0. -1.
         24    2    1    2    0    0 -0.13422069883E+03  0.60245528204E+01 -0.29501527389E+03  0.33408604264E+03  0.80795920867E+02 0.  0.
         25    2    1    2    0    0  0.18661404868E+03 -0.40750494627E+03 -0.19355874698E+03  0.50395892686E+03  0.12499810812E+03 0.  0.
         24    2    1    2    0    0  0.41595927926E+02  0.78096314498E+01 -0.38643169703E+02  0.99188005694E+02  0.80955261382E+02 0.  0.
        -11    1    5    5    0    0 -0.21263339623E+02  0.17753738212E+02 -0.12367283365E+02  0.30336026936E+02  0.00000000000E+00 0.  1.
         12    1    5    5    0    0  0.62859267549E+02 -0.99441067625E+01 -0.26275886338E+02  0.68851978758E+02  0.00000000000E+00 0. -1.
        -13    1    3    3    0    0  0.96918988959E+01 -0.50149244830E+01 -0.10973001306E+02  0.15475436325E+02  0.00000000000E+00 0.  1.
         14    1    3    3    0    0 -0.14391259772E+03  0.11039477303E+02 -0.28404227258E+03  0.31861060632E+03  0.00000000000E+00 0. -1.
          5    1    4    4  501    0  0.75231215551E+02 -0.17104616118E+03 -0.15295665458E+02  0.18754352143E+03  0.47000000000E+01 0.  1.
         -5    1    4    4    0  501  0.11138283313E+03 -0.23645878509E+03 -0.17826308153E+03  0.31641540543E+03  0.47000000000E+01 0.  1.
          1    1    1    2  502    0 -0.25814680799E+02  0.28569774489E+03  0.16258779920E+02  0.28732202683E+03  0.00000000000E+00 0. -1.
          1    1    1    2  503    0 -0.68174596978E+02  0.10797301711E+03 -0.11266521291E+04  0.11338654983E+04  0.00000000000E+00 0. -1.
<mgrwt>
<rscale>  0 0.14922365E+03</rscale>
<asrwt>0</asrwt>
<pdfrwt beam="1">  1        2 0.53000732E-01 0.17461438E+03</pdfrwt>
<pdfrwt beam="2">  1        2 0.29382582E+00 0.12752500E+03</pdfrwt>
<totfact> 0.13070839E+02</totfact>
</mgrwt>
</event>
<event>
13    1  0.2101801E-008  0.1144968E+03  0.7546771E-02  0.1384211E+00
          2   -1    0    0  502    0  0.00000000000E+00  0.00000000000E+00  0.37320889353E+04  0.37320889353E+04  0.00000000000E+00 0. -1.
          2   -1    0    0  503    0 -0.00000000000E+00 -0.00000000000E+00 -0.42105034533E+04  0.42105034533E+04  0.00000000000E+00 0. -1.
         24    2    1    2    0    0  0.36896351195E+03  0.30140044420E+01 -0.20122313369E+04  0.20474799613E+04  0.83403126914E+02 0.  0.
         25    2    1    2    0    0 -0.30404532927E+03  0.43818664756E+02 -0.74283627012E+03  0.81350789018E+03  0.12500290219E+03 0.  0.
         24    2    1    2    0    0 -0.13101433647E+03 -0.91925232058E+02 -0.66641565470E+03  0.68973191689E+03  0.77493791416E+02 0.  0.
        -13    1    3    3    0    0  0.77354753839E+02  0.21266321316E+02 -0.60007848705E+03  0.60541738081E+03  0.00000000000E+00 0.  1.
         14    1    3    3    0    0  0.29160875811E+03 -0.18252316874E+02 -0.14121528498E+04  0.14420625805E+04  0.00000000000E+00 0. -1.
        -13    1    5    5    0    0 -0.35258228853E+02  0.31012001766E+01 -0.23687728256E+03  0.23950700853E+03  0.00000000000E+00 0.  1.
         14    1    5    5    0    0 -0.95756107615E+02 -0.95026432235E+02 -0.42953837214E+03  0.45022490836E+03  0.00000000000E+00 0. -1.
          5    1    4    4  501    0 -0.25981207131E+03  0.11458669440E+02 -0.49000352784E+03  0.55476045353E+03  0.47000000000E+01 0.  1.
         -5    1    4    4    0  501 -0.44233257951E+02  0.32359995316E+02 -0.25283274228E+03  0.25874743665E+03  0.47000000000E+01 0.  1.
          1    1    1    2  502    0  0.98661417771E+02  0.58116002914E+02  0.36661517560E+04  0.36679395092E+04  0.00000000000E+00 0. -1.
          1    1    1    2  503    0 -0.32565263983E+02 -0.13023440054E+02 -0.72308301237E+03  0.72393311099E+03  0.00000000000E+00 0. -1.
<mgrwt>
<rscale>  0 0.63369792E+02</rscale>
<asrwt>0</asrwt>
<pdfrwt beam="1">  1        2 0.54883660E+00 0.11449677E+03</pdfrwt>
<pdfrwt beam="2">  1        2 0.61919169E+00 0.35072873E+02</pdfrwt>
<totfact> 0.11289025E-01</totfact>
</mgrwt>
</event>
<event>
13    1  0.2101801E-008  0.9301941E+02  0.7546771E-02  0.1303635E+00
         -3   -1    0    0    0  501 -0.00000000000E+00  0.00000000000E+00  0.29512880120E+04  0.29512880120E+04  0.00000000000E+00 0.  1.
          2   -1    0    0  503    0  0.00000000000E+00 -0.00000000000E+00 -0.65340593644E+03  0.65340593644E+03  0.00000000000E+00 0. -1.
         24    2    1    2    0    0  0.93699138075E+02  0.43045104206E+02  0.77621062940E+03  0.78721053014E+03  0.81025107816E+02 0.  0.
         25    2    1    2    0    0  0.91374158713E+02 -0.30858295582E+02  0.20856725289E+03  0.26158330650E+03  0.12499622384E+03 0.  0.
         24    2    1    2    0    0 -0.14945394056E+02  0.11667241452E+02  0.22096703162E+03  0.23509387684E+03  0.77994951990E+02 0.  0.
        -13    1    3    3    0    0  0.25525602900E+02  0.62226643997E+01  0.48980538780E+03  0.49050952679E+03  0.00000000000E+00 0.  1.
         14    1    3    3    0    0  0.68173535175E+02  0.36822439806E+02  0.28640524161E+03  0.29670100335E+03  0.00000000000E+00 0. -1.
        -13    1    5    5    0    0 -0.32845412616E+02  0.36658758259E+02  0.12586111923E+03  0.13514328330E+03  0.00000000000E+00 0.  1.
         14    1    5    5    0    0  0.17900018560E+02 -0.24991516807E+02  0.95105912387E+02  0.99950593534E+02  0.00000000000E+00 0. -1.
          5    1    4    4  502    0 -0.70825981778E+01  0.14531838938E+02  0.12093262911E+03  0.12209884653E+03  0.47000000000E+01 0.  1.
         -5    1    4    4    0  502  0.98456756891E+02 -0.45390134520E+02  0.87634623786E+02  0.13948445998E+03  0.47000000000E+01 0.  1.
          1    1    1    2  503    0 -0.86404949403E+02  0.23976869231E+01 -0.61015854002E+03  0.61625076725E+03  0.00000000000E+00 0. -1.
         -4    1    1    2    0  501 -0.83722953329E+02 -0.26251736999E+02  0.17022957017E+04  0.17045554677E+04  0.00000000000E+00 0.  1.
<mgrwt>
<rscale>  0 0.89677308E+02</rscale>
<asrwt>0</asrwt>
<pdfrwt beam="2">  1        2 0.96089110E-01 0.86455284E+02</pdfrwt>
<pdfrwt beam="1">  1       -3 0.43401294E+00 0.93019410E+02</pdfrwt>
<totfact> 0.29543649E-01</totfact>
</mgrwt>
</event>
<event>
13    1  0.2101801E-008  0.9524186E+02  0.7546771E-02  0.1431018E+00
          2   -1    0    0  503    0  0.00000000000E+00  0.00000000000E+00  0.35156016711E+04  0.35156016711E+04  0.00000000000E+00 0. -1.
          2   -1    0    0  502    0 -0.00000000000E+00 -0.00000000000E+00 -0.37061946282E+04  0.37061946282E+04  0.00000000000E+00 0. -1.
         24    2    1    2    0    0  0.19107709483E+03 -0.78261097709E+02 -0.61201829438E+03  0.65102330389E+03  0.81422932704E+02 0.  0.
         25    2    1    2    0    0  0.12282143615E+03  0.25018925204E+03 -0.24710030757E+03  0.39289174858E+03  0.12500238832E+03 0.  0.
         24    2    1    2    0    0 -0.19520534848E+03 -0.15635736380E+03 -0.84303146194E+03  0.88314426431E+03  0.81786260887E+02 0.  0.
        -11    1    3    3    0    0  0.31138827211E+02 -0.47893621447E+02 -0.12298599856E+03  0.13560597840E+03  0.00000000000E+00 0.  1.
         12    1    3    3    0    0  0.15993826762E+03 -0.30367476262E+02 -0.48903229582E+03  0.51541732550E+03  0.00000000000E+00 0. -1.
        -13    1    5    5    0    0 -0.19903850389E+03 -0.13328016195E+03 -0.75758024768E+03  0.79454877715E+03  0.00000000000E+00 0.  1.
         14    1    5    5    0    0  0.38331554126E+01 -0.23077201849E+02 -0.85451214259E+02  0.88595487154E+02  0.00000000000E+00 0. -1.
          5    1    4    4  501    0  0.10592139952E+03  0.25571762480E+03 -0.25146525748E+03  0.37398891993E+03  0.47000000000E+01 0. -1.
         -5    1    4    4    0  501  0.16900036628E+02 -0.55283727573E+01  0.43649499077E+01  0.18902828652E+02  0.47000000000E+01 0. -1.
          1    1    1    2  502    0 -0.23477391683E+02 -0.17400296229E+02 -0.18908107630E+04  0.18910365676E+04  0.00000000000E+00 0. -1.
          1    1    1    2  503    0 -0.95215790819E+02  0.18295056963E+01  0.34023678697E+04  0.34037004150E+04  0.00000000000E+00 0. -1.
<mgrwt>
<rscale>  0 0.52756149E+02</rscale>
<asrwt>0</asrwt>
<pdfrwt beam="1">  1        2 0.51700025E+00 0.95241859E+02</pdfrwt>
<pdfrwt beam="2">  1        2 0.54502862E+00 0.29222564E+02</pdfrwt>
<totfact> 0.34496122E-01</totfact>
</mgrwt>
</event>
<event>
13    1  0.2101801E-008  0.4009652E+02  0.7546771E-02  0.1528984E+00
          2   -1    0    0  503    0  0.00000000000E+00  0.00000000000E+00  0.95077576880E+03  0.95077576880E+03  0.00000000000E+00 0. -1.
          2   -1    0    0  502    0 -0.00000000000E+00 -0.00000000000E+00 -0.46599491067E+03  0.46599491067E+03  0.00000000000E+00 0. -1.
         24    2    1    2    0    0  0.48283007810E+02 -0.45941408828E+01 -0.35218892420E+02  0.10085899522E+03  0.81116037618E+02 0.  0.
         25    2    1    2    0    0 -0.19765982323E+03 -0.54838951379E+02  0.11181948435E+03  0.26497039820E+03  0.12501599311E+03 0.  0.
         24    2    1    2    0    0  0.10865197009E+03  0.50677295181E+02  0.23930442514E+02  0.15266538437E+03  0.91436396773E+02 0.  0.
        -13    1    5    5    0    0  0.38593629349E+02 -0.19870616712E+02  0.30456140164E+02  0.53027220449E+02  0.00000000000E+00 0.  1.
         14    1    5    5    0    0  0.70058340742E+02  0.70547911893E+02 -0.65256976503E+01  0.99638163923E+02  0.00000000000E+00 0. -1.
        -13    1    3    3    0    0 -0.12508842347E+02 -0.90155838674E+01 -0.36785542497E+02  0.39886439126E+02  0.00000000000E+00 0.  1.
         14    1    3    3    0    0  0.60791850157E+02  0.44214429847E+01  0.15666500775E+01  0.60972556089E+02  0.00000000000E+00 0. -1.
          5    1    4    4  501    0 -0.10370445109E+03  0.35488208092E+02  0.54774360413E+02  0.12262278193E+03  0.47000000000E+01 0. -1.
         -5    1    4    4    0  501 -0.93955372138E+02 -0.90327159471E+02  0.57045123939E+02  0.14234761627E+03  0.47000000000E+01 0. -1.
          1    1    1    2  502    0  0.18663235086E+02  0.35564852580E+02 -0.25496989800E+03  0.25811397476E+03  0.00000000000E+00 0. -1.
          1    1    1    2  503    0  0.22061610243E+02 -0.26809055499E+02  0.63921972167E+03  0.64016192692E+03  0.00000000000E+00 0. -1.
<mgrwt>
<rscale>  0 0.37311245E+02</rscale>
<asrwt>0</asrwt>
<pdfrwt beam="1">  1        2 0.13981997E+00 0.34719448E+02</pdfrwt>
<pdfrwt beam="2">  1        2 0.68528663E-01 0.40096519E+02</pdfrwt>
<totfact> 0.36878336E+02</totfact>
</mgrwt>
</event>
<event>
13    1  0.2101801E-008  0.1028542E+03  0.7546771E-02  0.1330107E+00
          4   -1    0    0  503    0 -0.00000000000E+00  0.00000000000E+00  0.10101033624E+04  0.10101033624E+04  0.00000000000E+00 0. -1.
          2   -1    0    0  502    0  0.00000000000E+00 -0.00000000000E+00 -0.39244017967E+03  0.39244017967E+03  0.00000000000E+00 0. -1.
         24    2    1    2    0    0  0.21596725094E+02 -0.11168823727E+02  0.20265758122E+03  0.21891775899E+03  0.79143722546E+02 0.  0.
         25    2    1    2    0    0 -0.68324520563E+02  0.66568026677E+02  0.40008755587E+03  0.42987698295E+03  0.12499850328E+03 0.  0.
         24    2    1    2    0    0 -0.38653493650E+02  0.46041350620E+02 -0.11202844995E+02  0.10101637360E+03  0.80404635813E+02 0.  0.
        -11    1    5    5    0    0 -0.68647567579E+01 -0.23097810953E+02 -0.54312331490E+01  0.24700851194E+02  0.00000000000E+00 0.  1.
         12    1    5    5    0    0 -0.31788736892E+02  0.69139161573E+02 -0.57716118461E+01  0.76315522402E+02  0.00000000000E+00 0. -1.
        -13    1    3    3    0    0  0.21826594592E+02 -0.44363969460E+02  0.12775653608E+03  0.13699012566E+03  0.00000000000E+00 0.  1.
         14    1    3    3    0    0 -0.22986949798E+00  0.33195145732E+02  0.74901045140E+02  0.81927633331E+02  0.00000000000E+00 0. -1.
          5    1    4    4  501    0  0.21399434375E+02  0.58493900381E+02  0.21639267362E+03  0.22522733264E+03  0.47000000000E+01 0.  1.
         -5    1    4    4    0  501 -0.89723954938E+02  0.80741262958E+01  0.18369488225E+03  0.20464965031E+03  0.47000000000E+01 0.  1.
          1    1    1    2  502    0  0.48423835115E+02 -0.15078305953E+03 -0.29012470109E+03  0.33053402401E+03  0.00000000000E+00 0. -1.
          3    1    1    2  503    0  0.36957454004E+02  0.49342505955E+02  0.31624559173E+03  0.32219840252E+03  0.00000000000E+00 0. -1.
<mgrwt>
<rscale>  0 0.79629184E+02</rscale>
<asrwt>0</asrwt>
<pdfrwt beam="2">  1        2 0.57711791E-01 0.10285421E+03</pdfrwt>
<pdfrwt beam="1">  1        4 0.14854461E+00 0.61648490E+02</pdfrwt>
<totfact> 0.14433671E+01</totfact>
</mgrwt>
</event>
<event>
13    1  0.2101801E-008  0.1730408E+03  0.7546771E-02  0.1256601E+00
          2   -1    0    0  502    0  0.00000000000E+00  0.00000000000E+00  0.11346735734E+04  0.11346735734E+04  0.00000000000E+00 0. -1.
          2   -1    0    0  503    0 -0.00000000000E+00 -0.00000000000E+00 -0.28593482096E+04  0.28593482096E+04  0.00000000000E+00 0. -1.
         24    2    1    2    0    0  0.14403463944E+02  0.35933169893E+02 -0.62502127633E+03  0.63148336554E+03  0.81369482104E+02 0.  0.
         25    2    1    2    0    0  0.23618398338E+03  0.24870304917E+03  0.17869792371E+03  0.40644183684E+03  0.12500375244E+03 0.  0.
         24    2    1    2    0    0  0.12424917932E+02  0.57839230152E+01  0.11351507648E+03  0.14008335305E+03  0.80931087132E+02 0.  0.
        -13    1    5    5    0    0 -0.26638773921E+02 -0.18713545899E+02  0.28046195531E+02  0.42969875027E+02  0.00000000000E+00 0.  1.
         14    1    5    5    0    0  0.39063691853E+02  0.24497468914E+02  0.85468880946E+02  0.97113478027E+02  0.00000000000E+00 0. -1.
        -13    1    3    3    0    0  0.22049927020E+02 -0.11546550081E+02 -0.42628820593E+03  0.42701423467E+03  0.00000000000E+00 0.  1.
         14    1    3    3    0    0 -0.76464630758E+01  0.47479719975E+02 -0.19873307040E+03  0.20446913087E+03  0.00000000000E+00 0. -1.
          5    1    4    4  501    0  0.13536272206E+03  0.19915609353E+03  0.16767279253E+03  0.29346630380E+03  0.47000000000E+01 0.  1.
         -5    1    4    4    0  501  0.10082126132E+03  0.49546955635E+02  0.11025131183E+02  0.11297553304E+03  0.47000000000E+01 0.  1.
          1    1    1    2  502    0 -0.69279122749E+02  0.22083441788E+02  0.69409570497E+03  0.69789406281E+03  0.00000000000E+00 0. -1.
          1    1    1    2  503    0 -0.19373324250E+03 -0.31250358386E+03 -0.20859620650E+04  0.21181191647E+04  0.00000000000E+00 0. -1.
<mgrwt>
<rscale>  0 0.11217141E+03</rscale>
<asrwt>0</asrwt>
<pdfrwt beam="1">  1        2 0.16686376E+00 0.72713652E+02</pdfrwt>
<pdfrwt beam="2">  1        2 0.42049238E+00 0.17304076E+03</pdfrwt>
<totfact> 0.12434572E+01</totfact>
</mgrwt>
</event>
<event>
13    1  0.2101801E-008  0.8796211E+02  0.7546771E-02  0.1365797E+00
          2   -1    0    0  503    0  0.00000000000E+00  0.00000000000E+00  0.24766617889E+04  0.24766617889E+04  0.00000000000E+00 0. -1.
          2   -1    0    0  502    0 -0.00000000000E+00 -0.00000000000E+00 -0.21832433674E+03  0.21832433674E+03  0.00000000000E+00 0. -1.
         24    2    1    2    0    0 -0.69415424466E+02  0.17683280977E+02  0.97863538266E+02  0.14483824464E+03  0.79181092489E+02 0.  0.
         25    2    1    2    0    0  0.74952914372E+01 -0.17258553139E+03  0.12783542908E+04  0.12960147739E+04  0.12499062525E+03 0.  0.
         24    2    1    2    0    0  0.71534987975E+02  0.45176497612E+02  0.66945273776E+03  0.67970165809E+03  0.81665203568E+02 0.  0.
        -11    1    3    3    0    0 -0.12614634393E+02 -0.28438350661E+02  0.15799415451E+02  0.34892553902E+02  0.00000000000E+00 0.  1.
         12    1    3    3    0    0 -0.56800790074E+02  0.46121631638E+02  0.82064122815E+02  0.10994569074E+03  0.00000000000E+00 0. -1.
        -11    1    5    5    0    0  0.46108732791E+02  0.31784325708E+01  0.52706570680E+03  0.52908825064E+03  0.00000000000E+00 0.  1.
         12    1    5    5    0    0  0.25426255184E+02  0.41998065042E+02  0.14238703096E+03  0.15061340745E+03  0.00000000000E+00 0. -1.
          5    1    4    4  501    0 -0.45654496443E+02 -0.48629227291E+02  0.64413955558E+03  0.64760095109E+03  0.47000000000E+01 0.  1.
         -5    1    4    4    0  501  0.53149787881E+02 -0.12395630410E+03  0.63421473521E+03  0.64841382283E+03  0.47000000000E+01 0.  1.
          1    1    1    2  502    0 -0.43716688899E+02  0.30158454857E+02 -0.17206789406E+03  0.18007787608E+03  0.00000000000E+00 0. -1.
          1    1    1    2  503    0  0.34101833953E+02  0.79567297940E+02  0.38473477940E+03  0.39435357290E+03  0.00000000000E+00 0. -1.
<mgrwt>
<rscale>  0 0.68349654E+02</rscale>
<asrwt>0</asrwt>
<pdfrwt beam="1">  1        2 0.36421495E+00 0.87962108E+02</pdfrwt>
<pdfrwt beam="2">  1        2 0.32106521E-01 0.53110086E+02</pdfrwt>
<totfact> 0.13315309E+02</totfact>
</mgrwt>
</event>
<event>
13    1  0.2101801E-008  0.5108745E+02  0.7546771E-02  0.1476559E+00
          2   -1    0    0  502    0  0.00000000000E+00  0.00000000000E+00  0.16125640930E+04  0.16125640930E+04  0.00000000000E+00 0. -1.
          2   -1    0    0  503    0 -0.00000000000E+00 -0.00000000000E+00 -0.34413843301E+04  0.34413843301E+04  0.00000000000E+00 0. -1.
         24    2    1    2    0    0  0.15616403051E+03  0.30080697208E+02 -0.45371025364E+03  0.48759689382E+03  0.81275358149E+02 0.  0.
         25    2    1    2    0    0  0.73441713581E+02 -0.28716900788E+03  0.23004283370E+03  0.39547520368E+03  0.12498482711E+03 0.  0.
         24    2    1    2    0    0 -0.19878231566E+03  0.33387819190E+03 -0.26907934387E+03  0.48303548904E+03  0.99652066387E+02 0.  0.
        -11    1    3    3    0    0 -0.69027915966E+01 -0.34862570117E+01 -0.54740707740E+02  0.55284243720E+02  0.00000000000E+00 0.  1.
         12    1    3    3    0    0  0.16306682210E+03  0.33566954219E+02 -0.39896954590E+03  0.43231265010E+03  0.00000000000E+00 0. -1.
        -11    1    5    5    0    0 -0.15200169391E+03  0.15846860196E+03 -0.14993211341E+03  0.26588804296E+03  0.00000000000E+00 0.  1.
         12    1    5    5    0    0 -0.46780621750E+02  0.17540958994E+03 -0.11914723046E+03  0.21714744608E+03  0.00000000000E+00 0. -1.
          5    1    4    4  501    0 -0.12797727458E+02 -0.11564234204E+03  0.14358682153E+03  0.18486805678E+03  0.47000000000E+01 0.  1.
         -5    1    4    4    0  501  0.86239441039E+02 -0.17152666584E+03  0.86456012173E+02  0.21060714690E+03  0.47000000000E+01 0.  1.
          1    1    1    2  502    0  0.33884223366E+01 -0.38870728849E+02  0.11753003123E+04  0.11759478046E+04  0.00000000000E+00 0. -1.
          1    1    1    2  503    0 -0.34211850764E+02 -0.37919152375E+02 -0.25113737856E+04  0.25118930320E+04  0.00000000000E+00 0. -1.
<mgrwt>
<rscale>  0 0.44646802E+02</rscale>
<asrwt>0</asrwt>
<pdfrwt beam="1">  1        2 0.23714178E+00 0.39018136E+02</pdfrwt>
<pdfrwt beam="2">  1        2 0.50608592E+00 0.51087447E+02</pdfrwt>
<totfact> 0.44418739E+00</totfact>
</mgrwt>
</event>
<event>
13    1  0.2101801E-008  0.1173489E+03  0.7546771E-02  0.1285444E+00
         -3   -1    0    0    0  501 -0.00000000000E+00  0.00000000000E+00  0.21383784615E+03  0.21383784615E+03  0.00000000000E+00 0.  1.
          2   -1    0    0  503    0  0.00000000000E+00 -0.00000000000E+00 -0.39436360875E+04  0.39436360875E+04  0.00000000000E+00 0. -1.
         24    2    1    2    0    0 -0.57902585190E+02 -0.79863747219E+00 -0.49041795899E+02  0.11078211603E+03  0.80710794154E+02 0.  0.
         25    2    1    2    0    0  0.14997736638E+02  0.49824094007E+02 -0.15646154004E+03  0.20690906234E+03  0.12499509639E+03 0.  0.
         24    2    1    2    0    0  0.31556627933E+02 -0.94908809009E+02 -0.49638990610E+03  0.51246855729E+03  0.78851636284E+02 0.  0.
        -13    1    3    3    0    0 -0.64300879491E+02 -0.26916667045E+02 -0.23144831851E+02  0.73449256699E+02  0.00000000000E+00 0.  1.
         14    1    3    3    0    0  0.63982943015E+01  0.26118029573E+02 -0.25896964048E+02  0.37332859328E+02  0.00000000000E+00 0. -1.
        -13    1    5    5    0    0 -0.13520970351E+02 -0.58611033600E+01 -0.18247331732E+03  0.18306742120E+03  0.00000000000E+00 0.  1.
         14    1    5    5    0    0  0.45077598284E+02 -0.89047705649E+02 -0.31391658878E+03  0.32940113609E+03  0.00000000000E+00 0. -1.
          5    1    4    4  502    0  0.58413598938E+02 -0.96995196685E+01 -0.51693884828E+02  0.78743742299E+02  0.47000000000E+01 0. -1.
         -5    1    4    4    0  502 -0.43415862300E+02  0.59523613676E+02 -0.10476765521E+03  0.12816532004E+03  0.47000000000E+01 0. -1.
          1    1    1    2  503    0 -0.30328951399E+02  0.11552547014E+03 -0.31653998857E+04  0.31676525087E+04  0.00000000000E+00 0. -1.
         -4    1    1    2    0  501  0.41677172019E+02 -0.69642117665E+02  0.13749488642E+03  0.15966168924E+03  0.00000000000E+00 0.  1.
<mgrwt>
<rscale>  0 0.97591427E+02</rscale>
<asrwt>0</asrwt>
<pdfrwt beam="2">  1        2 0.57994650E+00 0.11734893E+03</pdfrwt>
<pdfrwt beam="1">  1       -3 0.31446741E-01 0.81160404E+02</pdfrwt>
<totfact> 0.44598513E+00</totfact>
</mgrwt>
</event>
<event>
13    1  0.2101801E-008  0.1100134E+03  0.7546771E-02  0.1357449E+00
          2   -1    0    0  502    0  0.00000000000E+00  0.00000000000E+00  0.23174526007E+03  0.23174526007E+03  0.00000000000E+00 0. -1.
          4   -1    0    0  503    0 -0.00000000000E+00 -0.00000000000E+00 -0.11411255235E+04  0.11411255235E+04  0.00000000000E+00 0. -1.
         24    2    1    2    0    0 -0.22554330013E+02  0.31620345764E+02 -0.63915098301E+03  0.64542359174E+03  0.80926445759E+02 0.  0.
         25    2    1    2    0    0  0.65267392858E+02 -0.18491359143E+03 -0.82363098652E+02  0.24669878602E+03  0.12499496846E+03 0.  0.
         24    2    1    2    0    0  0.78811879490E+01  0.48512522423E+02 -0.12875945177E+03  0.15890112700E+03  0.79088518667E+02 0.  0.
        -11    1    3    3    0    0 -0.11024127170E+02 -0.43954824998E+01 -0.52573861231E+03  0.52587255121E+03  0.00000000000E+00 0.  1.
         12    1    3    3    0    0 -0.11530202843E+02  0.36015828264E+02 -0.11341237070E+03  0.11955104053E+03  0.00000000000E+00 0. -1.
        -13    1    5    5    0    0  0.40804946854E+02  0.34635197897E+02 -0.98405787922E+02  0.11201937206E+03  0.00000000000E+00 0.  1.
         14    1    5    5    0    0 -0.32923758905E+02  0.13877324527E+02 -0.30353663851E+02  0.46881754933E+02  0.00000000000E+00 0. -1.
          5    1    4    4  501    0  0.53307026003E+02 -0.14966099558E+03 -0.30635591162E+01  0.15897021109E+03  0.47000000000E+01 0. -1.
         -5    1    4    4    0  501  0.11960366855E+02 -0.35252595850E+02 -0.79299539536E+02  0.87728574935E+02  0.47000000000E+01 0. -1.
          1    1    1    2  502    0  0.32640311715E+02  0.31760576123E+02  0.11037531311E+03  0.11940198444E+03  0.00000000000E+00 0. -1.
          3    1    1    2  503    0 -0.83234562509E+02  0.73020147120E+02 -0.16948204313E+03  0.20244529440E+03  0.00000000000E+00 0. -1.
<mgrwt>
<rscale>  0 0.70783422E+02</rscale>
<asrwt>0</asrwt>
<pdfrwt beam="1">  1        2 0.34080186E-01 0.45542553E+02</pdfrwt>
<pdfrwt beam="2">  1        4 0.16781257E+00 0.11001344E+03</pdfrwt>
<totfact> 0.18261368E+01</totfact>
</mgrwt>
</event>
<event>
13    1  0.2101801E-008  0.2771391E+03  0.7546771E-02  0.1141511E+00
          2   -1    0    0  502    0  0.00000000000E+00  0.00000000000E+00  0.12763206492E+04  0.12763206492E+04  0.00000000000E+00 0. -1.
          2   -1    0    0  503    0 -0.00000000000E+00 -0.00000000000E+00 -0.21930409922E+04  0.21930409922E+04  0.00000000000E+00 0. -1.
         24    2    1    2    0    0  0.13309313211E+03 -0.59647687128E+02 -0.33843335689E+03  0.37662324822E+03  0.77693665403E+02 0.  0.
         25    2    1    2    0    0 -0.10140955884E+03  0.22075028343E+03  0.40422916194E+03  0.48789498950E+03  0.12500287658E+03 0.  0.
         24    2    1    2    0    0 -0.31379495190E+03 -0.22167214498E+03  0.45401796727E+03  0.60010375836E+03  0.79914920356E+02 0.  0.
        -11    1    5    5    0    0 -0.27992648574E+02 -0.53733503730E+02  0.79459096779E+02  0.99923099723E+02  0.00000000000E+00 0.  1.
         12    1    5    5    0    0 -0.28580230332E+03 -0.16793864125E+03  0.37455887049E+03  0.50018065864E+03  0.00000000000E+00 0. -1.
        -11    1    3    3    0    0  0.11423869517E+03 -0.56517775118E+02 -0.33329264101E+03  0.35683150496E+03  0.00000000000E+00 0.  1.
         12    1    3    3    0    0  0.18854436937E+02 -0.31299120099E+01 -0.51407158843E+01  0.19791743259E+02  0.00000000000E+00 0. -1.
          5    1    4    4  501    0 -0.75655078302E+02  0.35655276648E+02  0.96009384317E+02  0.12741617442E+03  0.47000000000E+01 0. -1.
         -5    1    4    4    0  501 -0.25754480535E+02  0.18509500678E+03  0.30821977762E+03  0.36047881508E+03  0.47000000000E+01 0. -1.
          1    1    1    2  502    0  0.23999768378E+03 -0.92991722543E+02  0.22120007732E+03  0.33937563685E+03  0.00000000000E+00 0. -1.
          1    1    1    2  503    0  0.42113694839E+02  0.15356127122E+03 -0.16577341926E+04  0.16653640085E+04  0.00000000000E+00 0. -1.
<mgrwt>
<rscale>  0 0.21006962E+03</rscale>
<asrwt>0</asrwt>
<pdfrwt beam="1">  1        2 0.18769422E+00 0.27713915E+03</pdfrwt>
<pdfrwt beam="2">  1        2 0.32250602E+00 0.15923136E+03</pdfrwt>
<totfact> 0.21331999E+01</totfact>
</mgrwt>
</event>
<event>
13    1  0.2101801E-008  0.1105418E+03  0.7546771E-02  0.1442592E+00
          2   -1    0    0  502    0  0.00000000000E+00  0.00000000000E+00  0.11811507402E+04  0.11811507402E+04  0.00000000000E+00 0. -1.
          2   -1    0    0  503    0 -0.00000000000E+00 -0.00000000000E+00 -0.21664826563E+04  0.21664826563E+04  0.00000000000E+00 0. -1.
         24    2    1    2    0    0 -0.68867137326E+02  0.22863778396E+03 -0.23026542606E+03  0.34134165312E+03  0.80461412228E+02 0.  0.
         25    2    1    2    0    0  0.19698563392E+03 -0.21619576626E+03  0.17247117220E+03  0.36182230401E+03  0.12500050046E+03 0.  0.
         24    2    1    2    0    0 -0.76428860376E+02  0.10874103493E+03 -0.21519487069E+03  0.26549824638E+03  0.80712471651E+02 0.  0.
        -13    1    3    3    0    0  0.77286182501E+01 -0.27261774960E+01 -0.61453811072E+01  0.10243500024E+02  0.00000000000E+00 0.  1.
         14    1    3    3    0    0 -0.76595755576E+02  0.23136396146E+03 -0.22412004496E+03  0.33109815310E+03  0.00000000000E+00 0. -1.
        -13    1    5    5    0    0 -0.21294736580E+02 -0.10593427947E+02 -0.38771034150E+02  0.45484938285E+02  0.00000000000E+00 0.  1.
         14    1    5    5    0    0 -0.55134123797E+02  0.11933446287E+03 -0.17642383654E+03  0.22001330809E+03  0.00000000000E+00 0. -1.
          5    1    4    4  501    0  0.46954541020E+02 -0.36549011150E+00  0.58824556988E+02  0.75414063743E+02  0.47000000000E+01 0.  1.
         -5    1    4    4    0  501  0.15003109290E+03 -0.21583027615E+03  0.11364661521E+03  0.28640824026E+03  0.47000000000E+01 0.  1.
          1    1    1    2  502    0 -0.15921052918E+02 -0.16713063130E+02  0.83118157283E+03  0.83150202249E+03  0.00000000000E+00 0. -1.
          1    1    1    2  503    0 -0.35768583302E+02 -0.10446998949E+03 -0.15435243644E+04  0.15474691705E+04  0.00000000000E+00 0. -1.
<mgrwt>
<rscale>  0 0.50513296E+02</rscale>
<asrwt>0</asrwt>
<pdfrwt beam="1">  1        2 0.17369864E+00 0.23082600E+02</pdfrwt>
<pdfrwt beam="2">  1        2 0.31860039E+00 0.11054184E+03</pdfrwt>
<totfact> 0.29966990E+01</totfact>
</mgrwt>
</event>
<event>
13    1  0.2101801E-008  0.6266205E+02  0.7546771E-02  0.1406885E+00
          2   -1    0    0  502    0  0.00000000000E+00  0.00000000000E+00  0.33490979320E+04  0.33490979320E+04  0.00000000000E+00 0. -1.
          2   -1    0    0  503    0 -0.00000000000E+00 -0.00000000000E+00 -0.42339160107E+03  0.42339160107E+03  0.00000000000E+00 0. -1.
         24    2    1    2    0    0 -0.50100912664E+02  0.21154839167E+03  0.12987508288E+03  0.26585026050E+03  0.80907356824E+02 0.  0.
         25    2    1    2    0    0 -0.22231951771E+03 -0.64165286651E+02  0.39856232878E+03  0.47752137840E+03  0.12502633701E+03 0.  0.
         24    2    1    2    0    0  0.35097568289E+03 -0.10590678298E+03  0.78557534037E+03  0.86936638266E+03  0.65338466811E+02 0.  0.
        -11    1    3    3    0    0 -0.30017745163E+02  0.20613751136E+03  0.12902613277E+03  0.24503363352E+03  0.00000000000E+00 0.  1.
         12    1    3    3    0    0 -0.20083167501E+02  0.54108803014E+01  0.84895010074E+00  0.20816626979E+02  0.00000000000E+00 0. -1.
        -13    1    5    5    0    0  0.91917424400E+02  0.12355169968E+01  0.20352121696E+03  0.22331866282E+03  0.00000000000E+00 0.  1.
         14    1    5    5    0    0  0.25905825849E+03 -0.10714229998E+03  0.58205412341E+03  0.64604771985E+03  0.00000000000E+00 0. -1.
          5    1    4    4  501    0 -0.88468208906E+02 -0.21212582782E+02  0.27707257915E+03  0.29166402207E+03  0.47000000000E+01 0. -1.
         -5    1    4    4    0  501 -0.13385130880E+03 -0.42952703868E+02  0.12148974963E+03  0.18585735633E+03  0.47000000000E+01 0. -1.
          1    1    1    2  502    0 -0.51357881486E+02  0.14951637747E+02  0.18817577876E+04  0.18825178763E+04  0.00000000000E+00 0. -1.
          1    1    1    2  503    0 -0.27197371038E+02 -0.56427959784E+02 -0.27006420872E+03  0.27723363517E+03  0.00000000000E+00 0. -1.
<mgrwt>
<rscale>  0 0.57894687E+02</rscale>
<asrwt>0</asrwt>
<pdfrwt beam="1">  1        2 0.49251439E+00 0.53490031E+02</pdfrwt>
<pdfrwt beam="2">  1        2 0.62263472E-01 0.62662045E+02</pdfrwt>
<totfact> 0.25666429E+01</totfact>
</mgrwt>
</event>
<event>
13    1  0.2101801E-008  0.5961893E+02  0.7546771E-02  0.1428719E+00
         -1   -1    0    0    0  501 -0.00000000000E+00  0.00000000000E+00  0.39086094386E+03  0.39086094386E+03  0.00000000000E+00 0.  1.
          2   -1    0    0  503    0  0.00000000000E+00 -0.00000000000E+00 -0.20719753016E+04  0.20719753016E+04  0.00000000000E+00 0. -1.
         24    2    1    2    0    0  0.21033121145E+03 -0.15276298338E+03 -0.15698366883E+02  0.27128424635E+03  0.75979971023E+02 0.  0.
         25    2    1    2    0    0 -0.19038079182E+03  0.11858649660E+03 -0.74150611344E+03  0.78470605169E+03  0.12499867291E+03 0.  0.
         24    2    1    2    0    0 -0.56020527962E+02  0.23261535763E+02 -0.49324017427E+03  0.50330896836E+03  0.79716055587E+02 0.  0.
        -13    1    3    3    0    0  0.11618113546E+03 -0.89082135363E+02 -0.46342196996E+02  0.15356198195E+03  0.00000000000E+00 0.  1.
         14    1    3    3    0    0  0.94150075985E+02 -0.63680848018E+02  0.30643830113E+02  0.11772226440E+03  0.00000000000E+00 0. -1.
        -13    1    5    5    0    0 -0.58156023576E+02  0.86943576658E+00 -0.17787694905E+03  0.18714456444E+03  0.00000000000E+00 0.  1.
         14    1    5    5    0    0  0.21354956143E+01  0.22392099997E+02 -0.31536322522E+03  0.31616440392E+03  0.00000000000E+00 0. -1.
          5    1    4    4  502    0 -0.12925119185E+03  0.94484628763E+02 -0.31751590961E+03  0.35562854008E+03  0.47000000000E+01 0.  1.
         -5    1    4    4    0  502 -0.61129599962E+02  0.24101867837E+02 -0.42399020383E+03  0.42907751161E+03  0.47000000000E+01 0.  1.
          1    1    1    2  503    0  0.15157148584E+02 -0.45021417165E+02 -0.66246834960E+03  0.66416939208E+03  0.00000000000E+00 0. -1.
         -2    1    1    2    0  501  0.20912959748E+02  0.55936368183E+02  0.23179864647E+03  0.23936758694E+03  0.00000000000E+00 0.  1.
<mgrwt>
<rscale>  0 0.53218053E+02</rscale>
<asrwt>0</asrwt>
<pdfrwt beam="2">  1        2 0.30470225E+00 0.47504391E+02</pdfrwt>
<pdfrwt beam="1">  1       -1 0.57479552E-01 0.59618933E+02</pdfrwt>
<totfact> 0.34132564E+01</totfact>
</mgrwt>
</event>
<event>
13    1  0.2101801E-008  0.4478553E+02  0.7546771E-02  0.1555830E+00
          2   -1    0    0  502    0  0.00000000000E+00  0.00000000000E+00  0.15225361083E+04  0.15225361083E+04  0.00000000000E+00 0. -1.
          2   -1    0    0  503    0 -0.00000000000E+00 -0.00000000000E+00 -0.23901565775E+04  0.23901565775E+04  0.00000000000E+00 0. -1.
         24    2    1    2    0    0 -0.62474134550E+03  0.28147081931E+03  0.49321929069E+03  0.84894510278E+03  0.88965993006E+02 0.  0.
         25    2    1    2    0    0  0.25749567860E+03 -0.13725842284E+03  0.44618913564E+03  0.54758787672E+03  0.12499535523E+03 0.  0.
         24    2    1    2    0    0  0.35204019338E+03 -0.98559500505E+02  0.70218140273E+02  0.38058540492E+03  0.79173166648E+02 0.  0.
        -13    1    3    3    0    0 -0.41033981565E+03  0.17886763998E+03  0.26929349323E+03  0.52239006732E+03  0.00000000000E+00 0.  1.
         14    1    3    3    0    0 -0.21440152985E+03  0.10260317933E+03  0.22392579746E+03  0.32655503545E+03  0.00000000000E+00 0. -1.
        -13    1    5    5    0    0  0.24623054203E+03 -0.89411939637E+02  0.80068975569E+02  0.27392520079E+03  0.00000000000E+00 0.  1.
         14    1    5    5    0    0  0.10580965135E+03 -0.91475608681E+01 -0.98508352959E+01  0.10666020413E+03  0.00000000000E+00 0. -1.
          5    1    4    4  501    0  0.22086409239E+03 -0.12390700986E+03  0.44018962210E+03  0.50786109105E+03  0.47000000000E+01 0.  1.
         -5    1    4    4    0  501  0.36631586214E+02 -0.13351412977E+02  0.59995135425E+01  0.39726785672E+02  0.47000000000E+01 0.  1.
          1    1    1    2  502    0 -0.19511017204E+02 -0.17358443576E+02  0.12759095984E+03  0.13023612551E+03  0.00000000000E+00 0. -1.
          1    1    1    2  503    0  0.34716490723E+02 -0.28294452385E+02 -0.20048379957E+04  0.20053381759E+04  0.00000000000E+00 0. -1.
<mgrwt>
<rscale>  0 0.34199065E+02</rscale>
<asrwt>0</asrwt>
<pdfrwt beam="1">  1        2 0.22390237E+00 0.26115041E+02</pdfrwt>
<pdfrwt beam="2">  1        2 0.35149361E+00 0.44785533E+02</pdfrwt>
<totfact> 0.17901417E+01</totfact>
</mgrwt>
</event>
<event>
13    1  0.2101801E-008  0.8576005E+02  0.7546771E-02  0.1367594E+00
          2   -1    0    0  503    0  0.00000000000E+00  0.00000000000E+00  0.27263191811E+04  0.27263191811E+04  0.00000000000E+00 0. -1.
          2   -1    0    0  502    0 -0.00000000000E+00 -0.00000000000E+00 -0.58679168564E+03  0.58679168564E+03  0.00000000000E+00 0. -1.
         24    2    1    2    0    0 -0.41053467697E+02  0.21961965465E+03 -0.24570436119E+03  0.34251787270E+03  0.83843187527E+02 0.  0.
         25    2    1    2    0    0  0.45465705023E+02 -0.33097785019E+03  0.58074193760E+03  0.68154259207E+03  0.12500255625E+03 0.  0.
         24    2    1    2    0    0  0.27302856286E+02 -0.16783914811E+02 -0.45463711565E+02  0.98871708347E+02  0.81740564497E+02 0.  0.
        -11    1    3    3    0    0  0.45327200432E-02  0.17892151758E+02  0.45582698052E+01  0.18463665364E+02  0.00000000000E+00 0.  1.
         12    1    3    3    0    0 -0.41058000417E+02  0.20172750289E+03 -0.25026263099E+03  0.32405420733E+03  0.00000000000E+00 0. -1.
        -13    1    5    5    0    0  0.50602195830E+02 -0.27502058043E+02 -0.45219802661E+02  0.73224148832E+02  0.00000000000E+00 0.  1.
         14    1    5    5    0    0 -0.23299339544E+02  0.10718143232E+02 -0.24390890361E+00  0.25647559515E+02  0.00000000000E+00 0. -1.
          5    1    4    4  501    0 -0.48368091080E+01 -0.20639652602E+03  0.24832877249E+03  0.32297397716E+03  0.47000000000E+01 0.  1.
         -5    1    4    4    0  501  0.50302514131E+02 -0.12458132416E+03  0.33241316511E+03  0.35856861491E+03  0.47000000000E+01 0.  1.
          1    1    1    2  502    0  0.91933292999E+01  0.52872170666E+02 -0.16494710794E+03  0.17345758026E+03  0.00000000000E+00 0. -1.
          1    1    1    2  503    0 -0.40908422912E+02  0.75269939685E+02  0.20149007386E+04  0.20167211134E+04  0.00000000000E+00 0. -1.
<mgrwt>
<rscale>  0 0.67840652E+02</rscale>
<asrwt>0</asrwt>
<pdfrwt beam="1">  1        2 0.40092929E+00 0.85760046E+02</pdfrwt>
<pdfrwt beam="2">  1        2 0.86292896E-01 0.53665480E+02</pdfrwt>
<totfact> 0.35998447E+01</totfact>
</mgrwt>
</event>
<event>
13    1  0.2101801E-008  0.1359683E+03  0.7546771E-02  0.1350572E+00
          2   -1    0    0  503    0  0.00000000000E+00  0.00000000000E+00  0.18923134265E+03  0.18923134265E+03  0.00000000000E+00 0. -1.
          2   -1    0    0  502    0 -0.00000000000E+00 -0.00000000000E+00 -0.20295348524E+04  0.20295348524E+04  0.00000000000E+00 0. -1.
         24    2    1    2    0    0 -0.38252050970E+02 -0.34146298490E+01 -0.63016303077E+03  0.63626316011E+03  0.79060005471E+02 0.  0.
         25    2    1    2    0    0  0.76835803790E+01  0.45101843322E+02 -0.54420004660E+03  0.56024305487E+03  0.12500150452E+03 0.  0.
         24    2    1    2    0    0  0.15768558744E+03  0.32556976792E+02  0.36589636983E+02  0.18470073655E+03  0.82769917982E+02 0.  0.
        -11    1    3    3    0    0 -0.20867240118E+02  0.37731810802E+02 -0.32529699951E+03  0.32814214778E+03  0.00000000000E+00 0.  1.
         12    1    3    3    0    0 -0.17384810853E+02 -0.41146440651E+02 -0.30486603126E+03  0.30812101234E+03  0.00000000000E+00 0. -1.
        -13    1    5    5    0    0  0.64621491120E+02  0.50468552360E+02 -0.28648128144E+01  0.82044006754E+02  0.00000000000E+00 0.  1.
         14    1    5    5    0    0  0.93064096318E+02 -0.17911575567E+02  0.39454449798E+02  0.10265672979E+03  0.00000000000E+00 0. -1.
          5    1    4    4  501    0 -0.24818298257E+02  0.78928632294E+01 -0.18698413803E+02  0.32403177268E+02  0.47000000000E+01 0.  1.
         -5    1    4    4    0  501  0.32501878636E+02  0.37208980092E+02 -0.52550163280E+03  0.52783987761E+03  0.47000000000E+01 0.  1.
          1    1    1    2  502    0 -0.33913150472E+02  0.19383479655E+02 -0.70435409200E+03  0.70543639541E+03  0.00000000000E+00 0. -1.
          1    1    1    2  503    0 -0.93203966374E+02 -0.93627669920E+02  0.18240226779E+01  0.13212284807E+03  0.00000000000E+00 0. -1.
<mgrwt>
<rscale>  0 0.72877725E+02</rscale>
<asrwt>0</asrwt>
<pdfrwt beam="1">  1        2 0.27828137E-01 0.13596834E+03</pdfrwt>
<pdfrwt beam="2">  1        2 0.29846103E+00 0.39061760E+02</pdfrwt>
<totfact> 0.28616519E+02</totfact>
</mgrwt>
</event>
<event>
13    1  0.2101801E-008  0.7689550E+02  0.7546771E-02  0.1407622E+00
          2   -1    0    0  503    0  0.00000000000E+00  0.00000000000E+00  0.26077597114E+04  0.26077597114E+04  0.00000000000E+00 0. -1.
          2   -1    0    0  502    0 -0.00000000000E+00 -0.00000000000E+00 -0.16330541875E+04  0.16330541875E+04  0.00000000000E+00 0. -1.
         24    2    1    2    0    0 -0.76110199792E+01  0.52645550851E+02 -0.55909142786E+03  0.56761051946E+03  0.82273904955E+02 0.  0.
         25    2    1    2    0    0 -0.78036939840E+01 -0.11362337005E+03  0.60553060380E+03  0.62870058119E+03  0.12500376308E+03 0.  0.
         24    2    1    2    0    0  0.15297874357E+02  0.53728124049E+01 -0.23681573596E+03  0.25069091335E+03  0.80630944222E+02 0.  0.
        -13    1    5    5    0    0 -0.41627288865E+01 -0.31076097190E+02 -0.47473380674E+02  0.56892653312E+02  0.00000000000E+00 0.  1.
         14    1    5    5    0    0  0.19460603244E+02  0.36448909594E+02 -0.18934235529E+03  0.19379826004E+03  0.00000000000E+00 0. -1.
        -13    1    3    3    0    0 -0.28192352525E+02 -0.11499997348E+02 -0.15946402902E+03  0.16234480353E+03  0.00000000000E+00 0.  1.
         14    1    3    3    0    0  0.20581332546E+02  0.64145548199E+02 -0.39962739884E+03  0.40526571593E+03  0.00000000000E+00 0. -1.
          5    1    4    4  501    0  0.43097162069E+02 -0.95549407320E+02  0.48961576292E+03  0.50073220380E+03  0.47000000000E+01 0.  1.
         -5    1    4    4    0  501 -0.50900856053E+02 -0.18073962726E+02  0.11591484088E+03  0.12796837739E+03  0.47000000000E+01 0.  1.
          1    1    1    2  502    0 -0.42341416140E+02  0.64293991368E+02 -0.81230757214E+03  0.81594736632E+03  0.00000000000E+00 0. -1.
          1    1    1    2  503    0  0.42458255746E+02 -0.86889845782E+01  0.19773896561E+04  0.19778645186E+04  0.00000000000E+00 0. -1.
<mgrwt>
<rscale>  0 0.57727935E+02</rscale>
<asrwt>0</asrwt>
<pdfrwt beam="1">  1        2 0.38349407E+00 0.43338227E+02</pdfrwt>
<pdfrwt beam="2">  1        2 0.24015503E+00 0.76895497E+02</pdfrwt>
<totfact> 0.11411511E+01</totfact>
</mgrwt>
</event>
<event>
13    1  0.2101801E-008  0.2049079E+03  0.7546771E-02  0.1224516E+00
          2   -1    0    0  503    0  0.00000000000E+00  0.00000000000E+00  0.28298357744E+04  0.28298357744E+04  0.00000000000E+00 0. -1.
          2   -1    0    0  502    0 -0.00000000000E+00 -0.00000000000E+00 -0.13843394419E+04  0.13843394419E+04  0.00000000000E+00 0. -1.
         24    2    1    2    0    0  0.47074505464E+02  0.10356492551E+03 -0.47483991586E+03  0.49486567927E+03  0.80482246285E+02 0.  0.
         25    2    1    2    0    0  0.19116062894E+03  0.73264805506E+02  0.10048348395E+04  0.10330675638E+04  0.12500167550E+03 0.  0.
         24    2    1    2    0    0 -0.47482496034E+02  0.14306967232E+03  0.62419655608E+03  0.64791887093E+03  0.86336574677E+02 0.  0.
        -11    1    5    5    0    0  0.17213682023E+02  0.83689414775E+02  0.28429522300E+03  0.29685687261E+03  0.00000000000E+00 0.  1.
         12    1    5    5    0    0 -0.64696178057E+02  0.59380257549E+02  0.33990133307E+03  0.35106199832E+03  0.00000000000E+00 0. -1.
        -11    1    3    3    0    0 -0.79314316145E+01 -0.50484808401E+01 -0.10676324731E+03  0.10717642345E+03  0.00000000000E+00 0.  1.
         12    1    3    3    0    0  0.55005937079E+02  0.10861340635E+03 -0.36807666854E+03  0.38768925582E+03  0.00000000000E+00 0. -1.
          5    1    4    4  501    0  0.18438658852E+03  0.31915943641E+02  0.91334979216E+03  0.93233415379E+03  0.47000000000E+01 0. -1.
         -5    1    4    4    0  501  0.67740404255E+01  0.41348861865E+02  0.91485047320E+02  0.10073340997E+03  0.47000000000E+01 0. -1.
          1    1    1    2  502    0 -0.27406402153E+03 -0.30286326280E+03 -0.82405291367E+03  0.91972846448E+03  0.00000000000E+00 0. -1.
          1    1    1    2  503    0  0.83311383159E+02 -0.17036140544E+02  0.11153577664E+04  0.11185946378E+04  0.00000000000E+00 0. -1.
<mgrwt>
<rscale>  0 0.13200159E+03</rscale>
<asrwt>0</asrwt>
<pdfrwt beam="1">  1        2 0.41615232E+00 0.85035385E+02</pdfrwt>
<pdfrwt beam="2">  1        2 0.20357933E+00 0.20490786E+03</pdfrwt>
<totfact> 0.98798974E+00</totfact>
</mgrwt>
</event>
<event>
13    1  0.2101801E-008  0.8298235E+02  0.7546771E-02  0.1369378E+00
          2   -1    0    0  503    0  0.00000000000E+00  0.00000000000E+00  0.67779244092E+03  0.67779244092E+03  0.00000000000E+00 0. -1.
          2   -1    0    0  502    0 -0.00000000000E+00 -0.00000000000E+00 -0.90541579175E+03  0.90541579175E+03  0.00000000000E+00 0. -1.
         24    2    1    2    0    0  0.63446642680E+02 -0.60878517585E+02 -0.47808171944E+01  0.12005548499E+03  0.81601427019E+02 0.  0.
         25    2    1    2    0    0 -0.79002312297E-01  0.18698718798E+03 -0.43388612658E+03  0.48871654333E+03  0.12498989629E+03 0.  0.
         24    2    1    2    0    0 -0.51224636178E+01 -0.10734569275E+03  0.14980952383E+03  0.20046173412E+03  0.78693557735E+02 0.  0.
        -11    1    3    3    0    0 -0.67007061660E+01 -0.45318382299E+02 -0.13292752339E+02  0.47700655154E+02  0.00000000000E+00 0.  1.
         12    1    3    3    0    0  0.70147348846E+02 -0.15560135286E+02  0.85119351443E+01  0.72354829833E+02  0.00000000000E+00 0. -1.
        -13    1    5    5    0    0  0.12612981667E+01 -0.97025022694E+02  0.15828483067E+03  0.18565972510E+03  0.00000000000E+00 0.  1.
         14    1    5    5    0    0 -0.63837617845E+01 -0.10320670060E+02 -0.84753068421E+01  0.14802009021E+02  0.00000000000E+00 0. -1.
          5    1    4    4  501    0  0.48058715051E+01 -0.17686215165E+02 -0.52875088152E+02  0.56158379204E+02  0.47000000000E+01 0. -1.
         -5    1    4    4    0  501 -0.48848738174E+01  0.20467340314E+03 -0.38101103843E+03  0.43255816412E+03  0.47000000000E+01 0. -1.
          1    1    1    2  502    0 -0.15180342686E+02  0.52496224780E+02 -0.35007914217E+03  0.35431864502E+03  0.00000000000E+00 0. -1.
          1    1    1    2  503    0 -0.43064834064E+02 -0.71259202416E+02  0.41131321129E+03  0.41965582522E+03  0.00000000000E+00 0. -1.
<mgrwt>
<rscale>  0 0.67340460E+02</rscale>
<asrwt>0</asrwt>
<pdfrwt beam="1">  1        2 0.99675360E-01 0.82982345E+02</pdfrwt>
<pdfrwt beam="2">  1        2 0.13314938E+00 0.54647017E+02</pdfrwt>
<totfact> 0.25356687E+02</totfact>
</mgrwt>
</event>
<event>
13    1  0.2101801E-008  0.1082975E+03  0.7546771E-02  0.1306166E+00
          2   -1    0    0  503    0  0.00000000000E+00  0.00000000000E+00  0.18831117785E+04  0.18831117785E+04  0.00000000000E+00 0. -1.
          2   -1    0    0  502    0 -0.00000000000E+00 -0.00000000000E+00 -0.12114204391E+04  0.12114204391E+04  0.00000000000E+00 0. -1.
         24    2    1    2    0    0 -0.13961314878E+02 -0.53784987516E+02 -0.29351911869E+02  0.10191322346E+03  0.80231086185E+02 0.  0.
         25    2    1    2    0    0 -0.12237277375E+03 -0.45213959362E+02  0.42879768558E+03  0.46530650394E+03  0.12499315810E+03 0.  0.
         24    2    1    2    0    0  0.92828406166E+02  0.16134142105E+02  0.14095022437E+03  0.18788019167E+03  0.80960343000E+02 0.  0.
        -11    1    3    3    0    0 -0.30024284249E+02  0.72662424066E+01  0.28925295223E+01  0.31026160742E+02  0.00000000000E+00 0.  1.
         12    1    3    3    0    0  0.16062969371E+02 -0.61051229923E+02 -0.32244441391E+02  0.70887062718E+02  0.00000000000E+00 0. -1.
        -13    1    5    5    0    0  0.65083582281E+01 -0.11505351815E+02  0.74066562650E+02  0.75236876264E+02  0.00000000000E+00 0.  1.
         14    1    5    5    0    0  0.86320047938E+02  0.27639493920E+02  0.66883661719E+02  0.11264331540E+03  0.00000000000E+00 0. -1.
          5    1    4    4  501    0 -0.13852713205E+03 -0.57454542053E+02  0.41230184833E+03  0.43875470921E+03  0.47000000000E+01 0. -1.
         -5    1    4    4    0  501  0.16154358305E+02  0.12240582691E+02  0.16495837259E+02  0.26551794736E+02  0.47000000000E+01 0. -1.
          1    1    1    2  502    0  0.68708815934E+02 -0.23321861946E+02 -0.11004610115E+04  0.11028505104E+04  0.00000000000E+00 0. -1.
          1    1    1    2  503    0 -0.25203133472E+02  0.10618666672E+03  0.12317563527E+04  0.12365817881E+04  0.00000000000E+00 0. -1.
<mgrwt>
<rscale>  0 0.88645143E+02</rscale>
<asrwt>0</asrwt>
<pdfrwt beam="1">  1        2 0.27692820E+00 0.10829752E+03</pdfrwt>
<pdfrwt beam="2">  1        2 0.17815006E+00 0.72559015E+02</pdfrwt>
<totfact> 0.36936037E+01</totfact>
</mgrwt>
</event>
<event>
13    1  0.2101801E-008  0.1167527E+03  0.7546771E-02  0.1373188E+00
         -1   -1    0    0    0  501 -0.00000000000E+00  0.00000000000E+00  0.34702108972E+03  0.34702108972E+03  0.00000000000E+00 0.  1.
          2   -1    0    0  503    0  0.00000000000E+00 -0.00000000000E+00 -0.35633377046E+04  0.35633377046E+04  0.00000000000E+00 0. -1.
         24    2    1    2    0    0 -0.27668351036E+02  0.36282917568E+02  0.13607057767E+03  0.16529497528E+03  0.82007554464E+02 0.  0.
         25    2    1    2    0    0  0.42725658096E+02 -0.13144882917E+03 -0.12771804675E+04  0.12907048689E+04  0.12499934236E+03 0.  0.
         24    2    1    2    0    0  0.42632854032E+02 -0.32710058648E+02 -0.46169810941E+03  0.47182825292E+03  0.81050896605E+02 0.  0.
        -11    1    3    3    0    0  0.21972410425E+02 -0.98785639449E+01  0.51925295169E+02  0.57241672965E+02  0.00000000000E+00 0.  1.
         12    1    3    3    0    0 -0.49640761461E+02  0.46161481512E+02  0.84145282503E+02  0.10805330232E+03  0.00000000000E+00 0. -1.
        -13    1    5    5    0    0  0.66667631872E+02 -0.29826621398E+02 -0.34512346446E+03  0.35276678727E+03  0.00000000000E+00 0.  1.
         14    1    5    5    0    0 -0.24034777840E+02 -0.28834372501E+01 -0.11657464495E+03  0.11906146565E+03  0.00000000000E+00 0. -1.
          5    1    4    4  502    0  0.76732524795E+02 -0.96732200863E+02 -0.11000874992E+04  0.11070047854E+04  0.47000000000E+01 0. -1.
         -5    1    4    4    0  502 -0.34006866698E+02 -0.34716628309E+02 -0.17709296827E+03  0.18370008349E+03  0.47000000000E+01 0. -1.
          1    1    1    2  503    0 -0.23955220935E+02  0.29029181398E+02 -0.17830245394E+04  0.17834217263E+04  0.00000000000E+00 0. -1.
         -2    1    1    2    0  501 -0.33734940157E+02  0.98846788854E+02  0.16951592375E+03  0.19910897082E+03  0.00000000000E+00 0.  1.
<mgrwt>
<rscale>  0 0.66288949E+02</rscale>
<asrwt>0</asrwt>
<pdfrwt beam="2">  1        2 0.52402021E+00 0.37637029E+02</pdfrwt>
<pdfrwt beam="1">  1       -1 0.51032517E-01 0.11675270E+03</pdfrwt>
<totfact> 0.77474425E+00</totfact>
</mgrwt>
</event>
<event>
13    1  0.2101801E-008  0.9604269E+02  0.7546771E-02  0.1315410E+00
          2   -1    0    0  503    0  0.00000000000E+00  0.00000000000E+00  0.35246826835E+03  0.35246826835E+03  0.00000000000E+00 0. -1.
          2   -1    0    0  502    0 -0.00000000000E+00 -0.00000000000E+00 -0.19933026512E+04  0.19933026512E+04  0.00000000000E+00 0. -1.
         24    2    1    2    0    0 -0.15497410773E+02  0.13211649897E+02 -0.88135292358E+03  0.88515963210E+03  0.79434759150E+02 0.  0.
         25    2    1    2    0    0 -0.12202526277E+03  0.19881798267E+03  0.14173708302E+03  0.30022127524E+03  0.12499863367E+03 0.  0.
         24    2    1    2    0    0  0.46043284924E+02 -0.32469318970E+02 -0.38700437600E+01  0.10848566255E+03  0.92627862866E+02 0.  0.
        -11    1    5    5    0    0 -0.22784238719E+02 -0.24695605296E+02  0.14849456240E+02  0.36735552338E+02  0.00000000000E+00 0.  1.
         12    1    5    5    0    0  0.68827523643E+02 -0.77737136740E+01 -0.18719500000E+02  0.71750110211E+02  0.00000000000E+00 0. -1.
        -11    1    3    3    0    0  0.23849746956E+02 -0.46977537226E+01 -0.60115733152E+03  0.60164858229E+03  0.00000000000E+00 0.  1.
         12    1    3    3    0    0 -0.39347157729E+02  0.17909403620E+02 -0.28019559205E+03  0.28351104981E+03  0.00000000000E+00 0. -1.
          5    1    4    4  501    0 -0.41536307165E+02  0.16759918089E+03  0.64804626818E+02  0.18448978266E+03  0.47000000000E+01 0. -1.
         -5    1    4    4    0  501 -0.80488955606E+02  0.31218801777E+02  0.76932456199E+02  0.11573149258E+03  0.47000000000E+01 0. -1.
          1    1    1    2  502    0  0.69108421780E+02 -0.10772080776E+03 -0.95094895495E+03  0.95952262157E+03  0.00000000000E+00 0. -1.
          1    1    1    2  503    0  0.22370966841E+02 -0.71839505838E+02  0.53600456420E+02  0.92381728090E+02  0.00000000000E+00 0. -1.
<mgrwt>
<rscale>  0 0.85008556E+02</rscale>
<asrwt>0</asrwt>
<pdfrwt beam="1">  1        2 0.51833570E-01 0.75242108E+02</pdfrwt>
<pdfrwt beam="2">  1        2 0.29313274E+00 0.96042691E+02</pdfrwt>
<totfact> 0.13836958E+02</totfact>
</mgrwt>
</event>
<event>
13    1  0.2101801E-008  0.7511568E+02  0.7546771E-02  0.1448390E+00
          4   -1    0    0  503    0 -0.00000000000E+00  0.00000000000E+00  0.70745303459E+03  0.70745303459E+03  0.00000000000E+00 0. -1.
          2   -1    0    0  502    0  0.00000000000E+00 -0.00000000000E+00 -0.33325951191E+04  0.33325951191E+04  0.00000000000E+00 0. -1.
         24    2    1    2    0    0  0.66630632731E+02  0.65516000819E+02  0.19773077296E+03  0.23375288473E+03  0.82528570574E+02 0.  0.
         25    2    1    2    0    0 -0.99287125512E+02 -0.17400666234E+03 -0.65487963998E+03  0.69615243940E+03  0.12499849677E+03 0.  0.
         24    2    1    2    0    0 -0.13806425694E+01  0.12816936732E+02 -0.11589572499E+04  0.11618811090E+04  0.81361074413E+02 0.  0.
        -11    1    3    3    0    0  0.57135061405E+02  0.15579922812E+02  0.49946871248E+02  0.77471537897E+02  0.00000000000E+00 0.  1.
         12    1    3    3    0    0  0.94955713256E+01  0.49936078007E+02  0.14778390171E+03  0.15628134683E+03  0.00000000000E+00 0. -1.
        -13    1    5    5    0    0  0.38638068615E+02 -0.32310889012E+01 -0.61206143637E+03  0.61328830265E+03  0.00000000000E+00 0.  1.
         14    1    5    5    0    0 -0.40018711185E+02  0.16048025633E+02 -0.54689581350E+03  0.54859280637E+03  0.00000000000E+00 0. -1.
          5    1    4    4  501    0  0.38415548293E+01 -0.11117143502E+03 -0.25115030543E+03  0.27472242614E+03  0.47000000000E+01 0.  1.
         -5    1    4    4    0  501 -0.10312868034E+03 -0.62835227329E+02 -0.40372933455E+03  0.42143001326E+03  0.47000000000E+01 0.  1.
          1    1    1    2  502    0  0.24703276622E+02  0.21179458181E+02 -0.14754676963E+04  0.14758264613E+04  0.00000000000E+00 0. -1.
          3    1    1    2  503    0  0.93338587282E+01  0.74494266612E+02  0.46643172862E+03  0.47243525920E+03  0.00000000000E+00 0. -1.
<mgrwt>
<rscale>  0 0.49439148E+02</rscale>
<asrwt>0</asrwt>
<pdfrwt beam="2">  1        2 0.49008751E+00 0.32539535E+02</pdfrwt>
<pdfrwt beam="1">  1        4 0.10403721E+00 0.75115683E+02</pdfrwt>
<totfact> 0.92635807E-01</totfact>
</mgrwt>
</event>
<event>
13    1  0.2101801E-008  0.1091800E+03  0.7546771E-02  0.1283681E+00
          2   -1    0    0  502    0  0.00000000000E+00  0.00000000000E+00  0.14843678374E+04  0.14843678374E+04  0.00000000000E+00 0. -1.
          2   -1    0    0  503    0 -0.00000000000E+00 -0.00000000000E+00 -0.19858918387E+04  0.19858918387E+04  0.00000000000E+00 0. -1.
         24    2    1    2    0    0  0.58859150237E+02 -0.49958934668E+02 -0.35354927416E+03  0.37068326585E+03  0.80303795670E+02 0.  0.
         25    2    1    2    0    0 -0.21897525980E+03  0.15965510417E+03  0.12226269190E+02  0.29868559470E+03  0.12499474440E+03 0.  0.
         24    2    1    2    0    0 -0.57828484306E+02  0.14565492768E+02  0.18676709940E+03  0.21370600783E+03  0.85041291057E+02 0.  0.
        -13    1    5    5    0    0  0.15626022776E+02  0.25187759237E+02  0.54435506685E+02  0.61982418404E+02  0.00000000000E+00 0.  1.
         14    1    5    5    0    0 -0.73454507082E+02 -0.10622266470E+02  0.13233159272E+03  0.15172358942E+03  0.00000000000E+00 0. -1.
        -13    1    3    3    0    0  0.31892910731E+02 -0.41552005534E+01 -0.26830331098E+03  0.27022414794E+03  0.00000000000E+00 0.  1.
         14    1    3    3    0    0  0.26966239506E+02 -0.45803734114E+02 -0.85245963176E+02  0.10045911790E+03  0.00000000000E+00 0. -1.
          5    1    4    4  501    0 -0.78486284041E+02  0.11910674209E+03 -0.31176438090E+02  0.14608413016E+03  0.47000000000E+01 0. -1.
         -5    1    4    4    0  501 -0.14048897576E+03  0.40548362083E+02  0.43402707279E+02  0.15260146453E+03  0.47000000000E+01 0. -1.
          1    1    1    2  502    0  0.14983016043E+03 -0.67448114965E+02  0.11127290885E+04  0.11247952479E+04  0.00000000000E+00 0. -1.
          1    1    1    2  503    0  0.68114433448E+02 -0.56813547307E+02 -0.14596971842E+04  0.14623895599E+04  0.00000000000E+00 0. -1.
<mgrwt>
<rscale>  0 0.98407610E+02</rscale>
<asrwt>0</asrwt>
<pdfrwt beam="1">  1        2 0.21828939E+00 0.10917998E+03</pdfrwt>
<pdfrwt beam="2">  1        2 0.29204292E+00 0.88698113E+02</pdfrwt>
<totfact> 0.23767685E+01</totfact>
</mgrwt>
</event>
<event>
13    1  0.2101801E-008  0.1050815E+03  0.7546771E-02  0.1435035E+00
          2   -1    0    0  502    0  0.00000000000E+00  0.00000000000E+00  0.30015504302E+04  0.30015504302E+04  0.00000000000E+00 0. -1.
          2   -1    0    0  503    0 -0.00000000000E+00 -0.00000000000E+00 -0.21030109477E+03  0.21030109477E+03  0.00000000000E+00 0. -1.
         24    2    1    2    0    0  0.49349968597E+02 -0.40715792120E+01 -0.14159113508E+03  0.16966380677E+03  0.79282789026E+02 0.  0.
         25    2    1    2    0    0  0.15221388860E+03 -0.72831951236E+02  0.19768678286E+04  0.19879907409E+04  0.12500885226E+03 0.  0.
         24    2    1    2    0    0 -0.13063103562E+03 -0.43124822123E+02  0.53106933661E+03  0.55441548855E+03  0.80110398232E+02 0.  0.
        -11    1    5    5    0    0 -0.29583881774E+02  0.60657645315E+01  0.37171880746E+02  0.47893092178E+02  0.00000000000E+00 0.  1.
         12    1    5    5    0    0 -0.10104715384E+03 -0.49190586655E+02  0.49389745586E+03  0.50652239637E+03  0.00000000000E+00 0. -1.
        -13    1    3    3    0    0  0.36429385481E+02 -0.40641564709E+02 -0.86832161602E+02  0.10256052455E+03  0.00000000000E+00 0.  1.
         14    1    3    3    0    0  0.12920583116E+02  0.36569985497E+02 -0.54758973480E+02  0.67103282214E+02  0.00000000000E+00 0. -1.
          5    1    4    4  501    0 -0.18540753315E+02 -0.89805677817E+01  0.95738330430E+02  0.98042480816E+02  0.47000000000E+01 0. -1.
         -5    1    4    4    0  501  0.17075464191E+03 -0.63851383454E+02  0.18811294982E+04  0.18899482601E+04  0.47000000000E+01 0. -1.
          1    1    1    2  502    0  0.20954342138E+02  0.14871508667E+02  0.32986183111E+03  0.33086110960E+03  0.00000000000E+00 0. -1.
          1    1    1    2  503    0 -0.91887163720E+02  0.10515684390E+03  0.95041474216E+02  0.16892037917E+03  0.00000000000E+00 0. -1.
<mgrwt>
<rscale>  0 0.51962451E+02</rscale>
<asrwt>0</asrwt>
<pdfrwt beam="1">  1        2 0.44140445E+00 0.25695257E+02</pdfrwt>
<pdfrwt beam="2">  1        2 0.30926633E-01 0.10508151E+03</pdfrwt>
<totfact> 0.93825952E+01</totfact>
</mgrwt>
</event>
<event>
13    1  0.2101801E-008  0.3156552E+02  0.7546771E-02  0.1624138E+00
          2   -1    0    0  502    0  0.00000000000E+00  0.00000000000E+00  0.13090828340E+04  0.13090828340E+04  0.00000000000E+00 0. -1.
          2   -1    0    0  503    0 -0.00000000000E+00 -0.00000000000E+00 -0.85515978962E+03  0.85515978962E+03  0.00000000000E+00 0. -1.
         24    2    1    2    0    0  0.11858237287E+03  0.76847376529E+02 -0.12386533549E+03  0.20498111528E+03  0.81898338513E+02 0.  0.
         25    2    1    2    0    0 -0.25080492642E+03 -0.85010564588E+02  0.37317334962E+03  0.47435782124E+03  0.12500834568E+03 0.  0.
         24    2    1    2    0    0  0.18634899023E+03 -0.59282535731E+01 -0.31597464415E+03  0.37558917976E+03  0.80412473284E+02 0.  0.
        -13    1    3    3    0    0 -0.42455772620E+01 -0.89866688286E+01 -0.20974026669E+02  0.23209802619E+02  0.00000000000E+00 0.  1.
         14    1    3    3    0    0  0.12282795013E+03  0.85834045358E+02 -0.10289130882E+03  0.18177131266E+03  0.00000000000E+00 0. -1.
        -13    1    5    5    0    0  0.32173895392E+02  0.29456451193E+02 -0.86500137497E+02  0.96876807589E+02  0.00000000000E+00 0.  1.
         14    1    5    5    0    0  0.15417509484E+03 -0.35384704767E+02 -0.22947450665E+03  0.27871237217E+03  0.00000000000E+00 0. -1.
          5    1    4    4  501    0 -0.54091562099E+02 -0.79137627914E+02  0.12019927764E+03  0.15381358064E+03  0.47000000000E+01 0.  1.
         -5    1    4    4    0  501 -0.19671336432E+03 -0.58729366744E+01  0.25297407198E+03  0.32054424060E+03  0.47000000000E+01 0.  1.
          1    1    1    2  502    0 -0.30212044837E+02  0.90982375261E+01  0.81413908996E+03  0.81475027056E+03  0.00000000000E+00 0. -1.
          1    1    1    2  503    0 -0.23914391837E+02  0.49932041064E+01 -0.29354941556E+03  0.29456423679E+03  0.00000000000E+00 0. -1.
<mgrwt>
<rscale>  0 0.27769573E+02</rscale>
<asrwt>0</asrwt>
<pdfrwt beam="1">  1        2 0.19251218E+00 0.31565523E+02</pdfrwt>
<pdfrwt beam="2">  1        2 0.12575879E+00 0.24430109E+02</pdfrwt>
<totfact> 0.12793382E+02</totfact>
</mgrwt>
</event>
<event>
13    1  0.2101801E-008  0.5115444E+02  0.7546771E-02  0.1459805E+00
          2   -1    0    0  502    0  0.00000000000E+00  0.00000000000E+00  0.26140381336E+04  0.26140381336E+04  0.00000000000E+00 0. -1.
          2   -1    0    0  503    0 -0.00000000000E+00 -0.00000000000E+00 -0.32939770844E+04  0.32939770844E+04  0.00000000000E+00 0. -1.
         24    2    1    2    0    0 -0.64021496474E+03  0.23939721498E+03 -0.19685122478E+04  0.20853711521E+04  0.80908248153E+02 0.  0.
         25    2    1    2    0    0 -0.70314360922E+02  0.22610990250E+02 -0.65206339481E+01  0.14533821855E+03  0.12500125148E+03 0.  0.
         24    2    1    2    0    0  0.72080299779E+03 -0.24317947883E+03  0.14187534401E+03  0.77559074614E+03  0.52145677795E+02 0.  0.
        -11    1    3    3    0    0 -0.43641187174E+03  0.12371348701E+03 -0.13281287467E+04  0.14034551352E+04  0.00000000000E+00 0.  1.
         12    1    3    3    0    0 -0.20380309300E+03  0.11568372797E+03 -0.64038350105E+03  0.68191601686E+03  0.00000000000E+00 0. -1.
        -13    1    5    5    0    0  0.49766102272E+03 -0.17125811994E+03  0.73741981644E+02  0.53144493322E+03  0.00000000000E+00 0.  1.
         14    1    5    5    0    0  0.22314197507E+03 -0.71921358893E+02  0.68133362368E+02  0.24414581293E+03  0.00000000000E+00 0. -1.
          5    1    4    4  501    0 -0.21732258292E+02  0.43848298736E+02  0.48305225659E+02  0.68923502366E+02  0.47000000000E+01 0. -1.
         -5    1    4    4    0  501 -0.48582102629E+02 -0.21237308486E+02 -0.54825859607E+02  0.76414716182E+02  0.47000000000E+01 0. -1.
          1    1    1    2  502    0 -0.51096229552E+02 -0.25489555088E+01  0.20265914839E+04  0.20272371259E+04  0.00000000000E+00 0. -1.
          1    1    1    2  503    0  0.40822557417E+02 -0.16279770888E+02 -0.87337289704E+03  0.87447797538E+03  0.00000000000E+00 0. -1.
<mgrwt>
<rscale>  0 0.47415029E+02</rscale>
<asrwt>0</asrwt>
<pdfrwt beam="1">  1        2 0.38441737E+00 0.51154437E+02</pdfrwt>
<pdfrwt beam="2">  1        2 0.48440839E+00 0.43948972E+02</pdfrwt>
<totfact> 0.18155568E+00</totfact>
</mgrwt>
</event>
<event>
13    1  0.2468533E-008  0.1351741E+03  0.7546771E-02  0.1228153E+00
          2   -1    0    0  503    0  0.00000000000E+00  0.00000000000E+00  0.34155727115E+04  0.34155727115E+04  0.00000000000E+00 0. -1.
         -1   -1    0    0    0  501 -0.00000000000E+00 -0.00000000000E+00 -0.26732909130E+04  0.26732909130E+04  0.00000000000E+00 0.  1.
         24    2    1    2    0    0 -0.88893965406E+02 -0.94356544841E+02  0.67760939808E+02  0.16711763686E+03  0.80817479211E+02 0.  0.
         25    2    1    2    0    0 -0.88174691650E+02 -0.16313773682E+03  0.38247248524E+03  0.44305583834E+03  0.12499830599E+03 0.  0.
         24    2    1    2    0    0 -0.20539818264E+02  0.28977942971E+02 -0.15533792579E+03  0.17876997155E+03  0.81038424384E+02 0.  0.
        -11    1    3    3    0    0 -0.13324230784E+02 -0.53607381364E+02 -0.37716497064E+01  0.55367064254E+02  0.00000000000E+00 0.  1.
         12    1    3    3    0    0 -0.75569734622E+02 -0.40749163477E+02  0.71532589514E+02  0.11175057260E+03  0.00000000000E+00 0. -1.
        -13    1    5    5    0    0  0.21357399794E+02 -0.11370333105E+02 -0.19752578158E+02  0.31234393619E+02  0.00000000000E+00 0.  1.
         14    1    5    5    0    0 -0.41897218058E+02  0.40348276076E+02 -0.13558534763E+03  0.14753557793E+03  0.00000000000E+00 0. -1.
          5    1    4    4  502    0 -0.77334641301E+02 -0.84681566471E+02  0.10892735412E+03  0.15823676223E+03  0.47000000000E+01 0.  1.
         -5    1    4    4    0  502 -0.10840050349E+02 -0.78456170352E+02  0.27354513113E+03  0.28481907612E+03  0.47000000000E+01 0.  1.
          1    1    1    2  503    0  0.18805386784E+02  0.12267737131E+03  0.28678602035E+04  0.28705444653E+04  0.00000000000E+00 0. -1.
         -2    1    1    2    0  501  0.17880308854E+03  0.10583896739E+03 -0.24204739043E+04  0.24293757125E+04  0.00000000000E+00 0.  1.
<mgrwt>
<rscale>  0 0.12953130E+03</rscale>
<asrwt>0</asrwt>
<pdfrwt beam="1">  1        2 0.50229010E+00 0.12412403E+03</pdfrwt>
<pdfrwt beam="2">  1       -1 0.39313102E+00 0.13517414E+03</pdfrwt>
<totfact> 0.20556719E-02</totfact>
</mgrwt>
</event>
<event>
13    1  0.2101801E-008  0.6901731E+02  0.7546771E-02  0.1423740E+00
          2   -1    0    0  502    0  0.00000000000E+00  0.00000000000E+00  0.15329921313E+04  0.15329921313E+04  0.00000000000E+00 0. -1.
          2   -1    0    0  503    0 -0.00000000000E+00 -0.00000000000E+00 -0.19569053989E+04  0.19569053989E+04  0.00000000000E+00 0. -1.
         24    2    1    2    0    0  0.17254291160E+02 -0.51186190287E+02 -0.10993243930E+04  0.11027694448E+04  0.68327084727E+02 0.  0.
         25    2    1    2    0    0  0.13950289619E+02  0.15150303606E+03  0.92566565245E+02  0.21756251857E+03  0.12496839588E+03 0.  0.
         24    2    1    2    0    0 -0.13019328473E+01  0.62508527710E+01 -0.13331791913E+03  0.15712431806E+03  0.82907270955E+02 0.  0.
        -11    1    3    3    0    0  0.24992760822E+02 -0.57016315856E+01 -0.13943690569E+03  0.14177375415E+03  0.00000000000E+00 0.  1.
         12    1    3    3    0    0 -0.77384696626E+01 -0.45484558702E+02 -0.95988748735E+03  0.96099569060E+03  0.00000000000E+00 0. -1.
        -13    1    5    5    0    0  0.25343508047E+02  0.32063142781E+02 -0.96774060166E+02  0.10505026057E+03  0.00000000000E+00 0.  1.
         14    1    5    5    0    0 -0.26645440894E+02 -0.25812290010E+02 -0.36543858962E+02  0.52074057493E+02  0.00000000000E+00 0. -1.
          5    1    4    4  501    0 -0.48565925867E+01 -0.13650506501E+02  0.40570187630E+02  0.43335354431E+02  0.47000000000E+01 0.  1.
         -5    1    4    4    0  501  0.18806882206E+02  0.16515354257E+03  0.51996377615E+02  0.17422716414E+03  0.47000000000E+01 0.  1.
          1    1    1    2  502    0 -0.64437677824E+01 -0.42132767304E+02  0.13621538673E+04  0.13628205496E+04  0.00000000000E+00 0. -1.
          1    1    1    2  503    0 -0.23458880149E+02 -0.64434931244E+02 -0.64599138800E+03  0.64962069917E+03  0.00000000000E+00 0. -1.
<mgrwt>
<rscale>  0 0.54237463E+02</rscale>
<asrwt>0</asrwt>
<pdfrwt beam="1">  1        2 0.22544002E+00 0.42622673E+02</pdfrwt>
<pdfrwt beam="2">  1        2 0.28778020E+00 0.69017314E+02</pdfrwt>
<totfact> 0.25743845E+01</totfact>
</mgrwt>
</event>
<event>
13    1  0.2101801E-008  0.3008867E+03  0.7546771E-02  0.1181923E+00
          2   -1    0    0  503    0  0.00000000000E+00  0.00000000000E+00  0.23405000538E+04  0.23405000538E+04  0.00000000000E+00 0. -1.
          2   -1    0    0  502    0 -0.00000000000E+00 -0.00000000000E+00 -0.12466631822E+04  0.12466631822E+04  0.00000000000E+00 0. -1.
         24    2    1    2    0    0 -0.15604638342E+02 -0.22909778497E+03 -0.34494757854E+03  0.42246791513E+03  0.82225346182E+02 0.  0.
         25    2    1    2    0    0 -0.12048459220E+03 -0.41499929168E+03  0.17175763298E+02  0.45017826992E+03  0.12499807522E+03 0.  0.
         24    2    1    2    0    0  0.16848046529E+02  0.49561210895E+02  0.11075926211E+03  0.14597474557E+03  0.79377842652E+02 0.  0.
        -13    1    3    3    0    0 -0.18404580935E+02 -0.21572310448E+03 -0.26902478510E+03  0.34532524003E+03  0.00000000000E+00 0.  1.
         14    1    3    3    0    0  0.27999425935E+01 -0.13374680489E+02 -0.75922793440E+02  0.77142675093E+02  0.00000000000E+00 0. -1.
        -13    1    5    5    0    0 -0.20683131644E+02  0.43689990816E+02  0.30437973654E+02  0.57123353125E+02  0.00000000000E+00 0.  1.
         14    1    5    5    0    0  0.37531178173E+02  0.58712200788E+01  0.80321288455E+02  0.88851392445E+02  0.00000000000E+00 0. -1.
          5    1    4    4  501    0  0.36305929079E+01  0.61108044629E+01  0.69798317683E+01  0.11015043693E+02  0.47000000000E+01 0.  1.
         -5    1    4    4    0  501 -0.12411518510E+03 -0.42111009615E+03  0.10195931530E+02  0.43916322623E+03  0.47000000000E+01 0.  1.
          1    1    1    2  502    0  0.61550202040E+02  0.52319449665E+03 -0.51716435107E+03  0.73822752233E+03  0.00000000000E+00 0. -1.
          1    1    1    2  503    0  0.57690981969E+02  0.71341369103E+02  0.18280137759E+04  0.18303147831E+04  0.00000000000E+00 0. -1.
<mgrwt>
<rscale>  0 0.16615050E+03</rscale>
<asrwt>0</asrwt>
<pdfrwt beam="1">  1        2 0.34419118E+00 0.91748789E+02</pdfrwt>
<pdfrwt beam="2">  1        2 0.18333282E+00 0.30088667E+03</pdfrwt>
<totfact> 0.19869866E+01</totfact>
</mgrwt>
</event>
<event>
13    1  0.2101801E-008  0.1331765E+03  0.7546771E-02  0.1237578E+00
          2   -1    0    0  503    0  0.00000000000E+00  0.00000000000E+00  0.23986724162E+04  0.23986724162E+04  0.00000000000E+00 0. -1.
         -1   -1    0    0    0  501 -0.00000000000E+00 -0.00000000000E+00 -0.34945424763E+03  0.34945424763E+03  0.00000000000E+00 0.  1.
         24    2    1    2    0    0  0.93949785087E+02 -0.97930177748E+02 -0.16980305650E+03  0.23591368796E+03  0.91680468685E+02 0.  0.
         25    2    1    2    0    0 -0.12072255742E+03 -0.63920280419E+02  0.35358610088E+03  0.39913999998E+03  0.12501948140E+03 0.  0.
         24    2    1    2    0    0 -0.57468402211E+02  0.12206194107E+02  0.79177717838E+03  0.79804707508E+03  0.80724379218E+02 0.  0.
        -11    1    3    3    0    0  0.59857844951E+02 -0.14602502831E+01 -0.78911672333E+02  0.99056276749E+02  0.00000000000E+00 0.  1.
         12    1    3    3    0    0  0.34091940136E+02 -0.96469927465E+02 -0.90891384163E+02  0.13685741121E+03  0.00000000000E+00 0. -1.
        -13    1    5    5    0    0 -0.41951952931E+02  0.46240530270E+02  0.49410914356E+03  0.49803814989E+03  0.00000000000E+00 0.  1.
         14    1    5    5    0    0 -0.15516449280E+02 -0.34034336163E+02  0.29766803482E+03  0.30000892519E+03  0.00000000000E+00 0. -1.
          5    1    4    4  502    0 -0.74183009591E+02 -0.96792462285E+02  0.28378198259E+03  0.30891131949E+03  0.47000000000E+01 0. -1.
         -5    1    4    4    0  502 -0.46539547828E+02  0.32872181866E+02  0.69804118290E+02  0.90228680490E+02  0.47000000000E+01 0. -1.
          1    1    1    2  503    0 -0.31016555963E+02  0.15540120016E+03  0.11600789436E+04  0.11708521320E+04  0.00000000000E+00 0. -1.
         -2    1    1    2    0  501  0.11525773051E+03 -0.57569361018E+01 -0.86420997766E+02  0.14417376880E+03  0.00000000000E+00 0.  1.
<mgrwt>
<rscale>  0 0.12340858E+03</rscale>
<asrwt>0</asrwt>
<pdfrwt beam="1">  1        2 0.35274594E+00 0.13317647E+03</pdfrwt>
<pdfrwt beam="2">  1       -1 0.51390331E-01 0.11435712E+03</pdfrwt>
<totfact> 0.25656423E+01</totfact>
</mgrwt>
</event>
<event>
13    1  0.2101801E-008  0.1080285E+03  0.7546771E-02  0.1314146E+00
          2   -1    0    0  502    0  0.00000000000E+00  0.00000000000E+00  0.27009056786E+03  0.27009056786E+03  0.00000000000E+00 0. -1.
          2   -1    0    0  503    0 -0.00000000000E+00 -0.00000000000E+00 -0.25793786421E+04  0.25793786421E+04  0.00000000000E+00 0. -1.
         24    2    1    2    0    0 -0.13703411446E+03 -0.44093646754E+02 -0.39550351285E+03  0.42778901769E+03  0.76536375469E+02 0.  0.
         25    2    1    2    0    0  0.13082934483E+03 -0.93933213026E+02 -0.10089855739E+03  0.22747014625E+03  0.12498952986E+03 0.  0.
         24    2    1    2    0    0  0.15054097570E+03  0.11385625718E+03 -0.94758415843E+02  0.22901271186E+03  0.88554119919E+02 0.  0.
        -11    1    5    5    0    0  0.11871402809E+03  0.12124589261E+03 -0.56827463129E+02  0.17894956693E+03  0.00000000000E+00 0.  1.
         12    1    5    5    0    0  0.31826947618E+02 -0.73896354260E+01 -0.37930952714E+02  0.50063144929E+02  0.00000000000E+00 0. -1.
        -11    1    3    3    0    0 -0.11002242558E+03 -0.65474594910E+02 -0.29643787416E+03  0.32290442850E+03  0.00000000000E+00 0.  1.
         12    1    3    3    0    0 -0.27011688873E+02  0.21380948156E+02 -0.99065638696E+02  0.10488458919E+03  0.00000000000E+00 0. -1.
          5    1    4    4  501    0 -0.49255089438E+01 -0.48025627886E+02  0.56476188763E+01  0.48833463641E+02  0.47000000000E+01 0.  1.
         -5    1    4    4    0  501  0.13575485378E+03 -0.45907585140E+02 -0.10654617626E+03  0.17863668261E+03  0.47000000000E+01 0.  1.
          1    1    1    2  502    0 -0.87883870861E+02  0.61466989566E+02  0.99509885290E+02  0.14630100080E+03  0.00000000000E+00 0. -1.
          1    1    1    2  503    0 -0.56452335220E+02 -0.37296386969E+02 -0.18176374734E+04  0.18188963333E+04  0.00000000000E+00 0. -1.
<mgrwt>
<rscale>  0 0.85493963E+02</rscale>
<asrwt>0</asrwt>
<pdfrwt beam="1">  1        2 0.39719201E-01 0.10802851E+03</pdfrwt>
<pdfrwt beam="2">  1        2 0.37932039E+00 0.67660082E+02</pdfrwt>
<totfact> 0.99499780E+01</totfact>
</mgrwt>
</event>
<event>
13    1  0.2101801E-008  0.4196139E+02  0.7546771E-02  0.1510214E+00
          2   -1    0    0  503    0  0.00000000000E+00  0.00000000000E+00  0.20739060319E+04  0.20739060319E+04  0.00000000000E+00 0. -1.
          2   -1    0    0  502    0 -0.00000000000E+00 -0.00000000000E+00 -0.21426385436E+04  0.21426385436E+04  0.00000000000E+00 0. -1.
         24    2    1    2    0    0 -0.11937532884E+03 -0.56250748380E+02 -0.64597150175E+03  0.66419536149E+03  0.80384583863E+02 0.  0.
         25    2    1    2    0    0  0.77944182691E+02 -0.19745451835E+02  0.66267275799E+03  0.67913147666E+03  0.12497679754E+03 0.  0.
         24    2    1    2    0    0  0.56208602147E+02  0.79051709478E+02 -0.21042944213E+03  0.24644794717E+03  0.83949156164E+02 0.  0.
        -11    1    3    3    0    0  0.96504954893E+01 -0.17139867686E+02 -0.86412495812E+02  0.88622946013E+02  0.00000000000E+00 0.  1.
         12    1    3    3    0    0 -0.12902582432E+03 -0.39110880694E+02 -0.55955900593E+03  0.57557241547E+03  0.00000000000E+00 0. -1.
        -13    1    5    5    0    0  0.29136298203E+02  0.91824315115E+02 -0.17741822781E+03  0.20188575056E+03  0.00000000000E+00 0.  1.
         14    1    5    5    0    0  0.27072303945E+02 -0.12772605637E+02 -0.33011214318E+02  0.44562196607E+02  0.00000000000E+00 0. -1.
          5    1    4    4  501    0  0.23578031572E+02  0.27954749568E+02  0.49672954408E+02  0.61861813713E+02  0.47000000000E+01 0. -1.
         -5    1    4    4    0  501  0.54366151119E+02 -0.47700201404E+02  0.61299980358E+03  0.61726966294E+03  0.47000000000E+01 0. -1.
          1    1    1    2  502    0 -0.26232150461E+02  0.32773764552E+02 -0.12502776226E+04  0.12509821657E+04  0.00000000000E+00 0. -1.
          1    1    1    2  503    0  0.11454694457E+02 -0.35829273815E+02  0.13752732967E+04  0.13757876244E+04  0.00000000000E+00 0. -1.
<mgrwt>
<rscale>  0 0.39729212E+02</rscale>
<asrwt>0</asrwt>
<pdfrwt beam="1">  1        2 0.30498618E+00 0.37615780E+02</pdfrwt>
<pdfrwt beam="2">  1        2 0.31509390E+00 0.41961386E+02</pdfrwt>
<totfact> 0.12728493E+01</totfact>
</mgrwt>
</event>
<event>
13    1  0.2101801E-008  0.1384609E+03  0.7546771E-02  0.1230532E+00
         -1   -1    0    0    0  501 -0.00000000000E+00  0.00000000000E+00  0.43844617778E+03  0.43844617778E+03  0.00000000000E+00 0.  1.
          2   -1    0    0  503    0  0.00000000000E+00 -0.00000000000E+00 -0.58654122455E+04  0.58654122455E+04  0.00000000000E+00 0. -1.
         24    2    1    2    0    0 -0.24999161622E+03  0.49611423275E+01  0.39523729916E+02  0.26572990817E+03  0.80807411514E+02 0.  0.
         25    2    1    2    0    0  0.26055446783E+03 -0.91742430195E+02 -0.21467105160E+04  0.21680169956E+04  0.12500539792E+03 0.  0.
         24    2    1    2    0    0 -0.79882751398E+02 -0.80299672176E+02 -0.14531938664E+03  0.20174697508E+03  0.82187751500E+02 0.  0.
        -11    1    3    3    0    0 -0.14345424429E+03 -0.26741960713E+02 -0.49477399227E+01  0.14600935860E+03  0.00000000000E+00 0.  1.
         12    1    3    3    0    0 -0.10653737193E+03  0.31703103040E+02  0.44471469838E+02  0.11972054957E+03  0.00000000000E+00 0. -1.
        -13    1    5    5    0    0 -0.42319828773E+01 -0.35599253807E+02 -0.92546424395E+02  0.99247454471E+02  0.00000000000E+00 0.  1.
         14    1    5    5    0    0 -0.75650768521E+02 -0.44700418368E+02 -0.52772962244E+02  0.10249952060E+03  0.00000000000E+00 0. -1.
          5    1    4    4  502    0  0.15517497360E+03 -0.11653185554E+03 -0.13041896246E+04  0.13185566399E+04  0.47000000000E+01 0. -1.
         -5    1    4    4    0  502  0.10537949423E+03  0.24789425349E+02 -0.84252089139E+03  0.84946035566E+03  0.47000000000E+01 0. -1.
          1    1    1    2  503    0  0.12458619205E+03  0.62558946433E+02 -0.34057522317E+04  0.34086043485E+04  0.00000000000E+00 0. -1.
         -2    1    1    2    0  501 -0.55266292267E+02  0.10452201361E+03  0.23129233667E+03  0.25976019594E+03  0.00000000000E+00 0.  1.
<mgrwt>
<rscale>  0 0.12794823E+03</rscale>
<asrwt>0</asrwt>
<pdfrwt beam="2">  1        2 0.86256057E+00 0.13846092E+03</pdfrwt>
<pdfrwt beam="1">  1       -1 0.64477383E-01 0.11823373E+03</pdfrwt>
<totfact> 0.22732562E-02</totfact>
</mgrwt>
</event>
<event>
13    1  0.2101801E-008  0.9512596E+02  0.7546771E-02  0.1302905E+00
         -1   -1    0    0    0  501 -0.00000000000E+00  0.00000000000E+00  0.15719183597E+04  0.15719183597E+04  0.00000000000E+00 0.  1.
          2   -1    0    0  503    0  0.00000000000E+00 -0.00000000000E+00 -0.20489740416E+04  0.20489740416E+04  0.00000000000E+00 0. -1.
         24    2    1    2    0    0  0.77918643071E+02 -0.72602433951E+02  0.39960158020E+03  0.42117216896E+03  0.79763053214E+02 0.  0.
         25    2    1    2    0    0  0.11066622966E+03 -0.26571287696E+01 -0.34057661566E+03  0.37930500249E+03  0.12500311620E+03 0.  0.
         24    2    1    2    0    0 -0.24852543229E+02  0.10842128088E+03  0.72327977246E+03  0.73629632717E+03  0.81399195940E+02 0.  0.
        -11    1    5    5    0    0  0.10354556139E+02  0.48688227100E+02  0.13391618879E+03  0.14286814169E+03  0.00000000000E+00 0.  1.
         12    1    5    5    0    0 -0.35207099368E+02  0.59733053784E+02  0.58936358367E+03  0.59342818548E+03  0.00000000000E+00 0. -1.
        -11    1    3    3    0    0  0.69205650143E+02 -0.62448321137E+02  0.19501201212E+03  0.21614555211E+03  0.00000000000E+00 0.  1.
         12    1    3    3    0    0  0.87129929277E+01 -0.10154112814E+02  0.20458956808E+03  0.20502661685E+03  0.00000000000E+00 0. -1.
          5    1    4    4  502    0  0.63701421455E+01 -0.18409457740E+02 -0.21194333341E+03  0.21288859393E+03  0.47000000000E+01 0. -1.
         -5    1    4    4    0  502  0.10429608751E+03  0.15752328970E+02 -0.12863328225E+03  0.16641640856E+03  0.47000000000E+01 0. -1.
          1    1    1    2  503    0 -0.70594816297E+02 -0.47537584133E+02 -0.16652545458E+04  0.16674280051E+04  0.00000000000E+00 0. -1.
         -2    1    1    2    0  501 -0.93137513200E+02  0.14375865969E+02  0.40589412689E+03  0.41669089759E+03  0.00000000000E+00 0.  1.
<mgrwt>
<rscale>  0 0.89977908E+02</rscale>
<asrwt>0</asrwt>
<pdfrwt beam="2">  1        2 0.30131971E+00 0.85108460E+02</pdfrwt>
<pdfrwt beam="1">  1       -1 0.23116446E+00 0.95125960E+02</pdfrwt>
<totfact> 0.11794560E+00</totfact>
</mgrwt>
</event>
<event>
13    1  0.2101801E-008  0.1256624E+03  0.7546771E-02  0.1268614E+00
          2   -1    0    0  503    0  0.00000000000E+00  0.00000000000E+00  0.87643103183E+03  0.87643103183E+03  0.00000000000E+00 0. -1.
          2   -1    0    0  502    0 -0.00000000000E+00 -0.00000000000E+00 -0.30505817655E+04  0.30505817655E+04  0.00000000000E+00 0. -1.
         24    2    1    2    0    0  0.86858351241E+02  0.18929707487E+02 -0.86579473132E+03  0.87405207207E+03  0.80397766793E+02 0.  0.
         25    2    1    2    0    0 -0.47205435850E+02 -0.24207587979E+02  0.87599408365E+02  0.16159822863E+03  0.12500388259E+03 0.  0.
         24    2    1    2    0    0 -0.12202036362E+03  0.16665200949E+02  0.13374412300E+03  0.19744572037E+03  0.77010544710E+02 0.  0.
        -11    1    3    3    0    0  0.21970672516E+02 -0.30613982191E+02 -0.23633370899E+03  0.23931892604E+03  0.00000000000E+00 0.  1.
         12    1    3    3    0    0  0.64887678725E+02  0.49543689678E+02 -0.62946102233E+03  0.63473314603E+03  0.00000000000E+00 0. -1.
        -11    1    5    5    0    0 -0.36478844080E+01 -0.98881170323E+01 -0.62088819049E+01  0.12232421412E+02  0.00000000000E+00 0.  1.
         12    1    5    5    0    0 -0.11837247921E+03  0.26553317981E+02  0.13995300490E+03  0.18521329896E+03  0.00000000000E+00 0. -1.
          5    1    4    4  501    0 -0.42617931946E+02 -0.51978187360E+02  0.10745514252E+03  0.12683342516E+03  0.47000000000E+01 0. -1.
         -5    1    4    4    0  501 -0.45875039045E+01  0.27770599381E+02 -0.19855734150E+02  0.34764803476E+02  0.47000000000E+01 0. -1.
          1    1    1    2  502    0  0.57618251331E+01  0.88835983974E+02 -0.21040215924E+04  0.21059040558E+04  0.00000000000E+00 0. -1.
          1    1    1    2  503    0  0.76605623097E+02 -0.10022330443E+03  0.57432205875E+03  0.58801272044E+03  0.00000000000E+00 0. -1.
<mgrwt>
<rscale>  0 0.10576766E+03</rscale>
<asrwt>0</asrwt>
<pdfrwt beam="1">  1        2 0.12888691E+00 0.12566238E+03</pdfrwt>
<pdfrwt beam="2">  1        2 0.44861497E+00 0.89022641E+02</pdfrwt>
<totfact> 0.14869037E+01</totfact>
</mgrwt>
</event>
<event>
13    1  0.2101801E-008  0.8619348E+02  0.7546771E-02  0.1335655E+00
          2   -1    0    0  503    0  0.00000000000E+00  0.00000000000E+00  0.12527600822E+04  0.12527600822E+04  0.00000000000E+00 0. -1.
          2   -1    0    0  502    0 -0.00000000000E+00 -0.00000000000E+00 -0.13497155329E+04  0.13497155329E+04  0.00000000000E+00 0. -1.
         24    2    1    2    0    0  0.12889068734E+03  0.77239306119E+02  0.22786986093E+02  0.17177465630E+03  0.80053520342E+02 0.  0.
         25    2    1    2    0    0  0.15856209363E+00 -0.45526272285E+02 -0.26792096562E+03  0.29912916466E+03  0.12499578679E+03 0.  0.
         24    2    1    2    0    0 -0.11937851577E+03 -0.17947274910E+02  0.55787182124E+02  0.15548961031E+03  0.80569687362E+02 0.  0.
        -13    1    5    5    0    0  0.96418758558E+01  0.75379857600E+01 -0.91594188504E+00  0.12272976366E+02  0.00000000000E+00 0.  1.
         14    1    5    5    0    0 -0.12902039162E+03 -0.25485260670E+02  0.56703124009E+02  0.14321663394E+03  0.00000000000E+00 0. -1.
        -13    1    3    3    0    0  0.11197746581E+03  0.39202582181E+02 -0.96042942016E+01  0.11902956677E+03  0.00000000000E+00 0.  1.
         14    1    3    3    0    0  0.16913221534E+02  0.38036723938E+02  0.32391280295E+02  0.52745089532E+02  0.00000000000E+00 0. -1.
          5    1    4    4  501    0  0.15292311571E+02 -0.50748165454E+02 -0.30919963245E+02  0.61541573080E+02  0.47000000000E+01 0.  1.
         -5    1    4    4    0  501 -0.15133749477E+02  0.52218931694E+01 -0.23700100238E+03  0.23758759157E+03  0.47000000000E+01 0.  1.
          1    1    1    2  502    0 -0.55533700047E+02 -0.66749333997E+02 -0.93865230811E+03  0.94265986493E+03  0.00000000000E+00 0. -1.
          1    1    1    2  503    0  0.45862966382E+02  0.52983575072E+02  0.10310436549E+04  0.10334223189E+04  0.00000000000E+00 0. -1.
<mgrwt>
<rscale>  0 0.77718145E+02</rscale>
<asrwt>0</asrwt>
<pdfrwt beam="1">  1        2 0.18422943E+00 0.70076179E+02</pdfrwt>
<pdfrwt beam="2">  1        2 0.19848758E+00 0.86193484E+02</pdfrwt>
<totfact> 0.65553826E+01</totfact>
</mgrwt>
</event>
<event>
13    1  0.2101801E-008  0.4704404E+02  0.7546771E-02  0.1485104E+00
          2   -1    0    0  502    0  0.00000000000E+00  0.00000000000E+00  0.43862207836E+04  0.43862207836E+04  0.00000000000E+00 0. -1.
          2   -1    0    0  503    0 -0.00000000000E+00 -0.00000000000E+00 -0.37402577646E+04  0.37402577646E+04  0.00000000000E+00 0. -1.
         24    2    1    2    0    0  0.20745964332E+04 -0.11327926508E+04  0.25333150759E+03  0.23786390292E+04  0.81100112452E+02 0.  0.
         25    2    1    2    0    0 -0.64745507481E+03  0.63250358952E+03 -0.11841433311E+04  0.14956873269E+04  0.12500514587E+03 0.  0.
         24    2    1    2    0    0 -0.13492602358E+04  0.52059565770E+03  0.53197944618E+03  0.15449155926E+04  0.11063017026E+03 0.  0.
        -11    1    5    5    0    0 -0.11096895676E+04  0.45898644689E+03  0.47265454706E+03  0.12905354763E+04  0.00000000000E+00 0.  1.
         12    1    5    5    0    0 -0.23957066821E+03  0.61609210806E+02  0.59324899120E+02  0.25438011632E+03  0.00000000000E+00 0. -1.
        -11    1    3    3    0    0  0.17936005607E+04 -0.98033566813E+03  0.24685953457E+03  0.20588833438E+04  0.00000000000E+00 0.  1.
         12    1    3    3    0    0  0.28099587252E+03 -0.15245698265E+03  0.64719730259E+01  0.31975568543E+03  0.00000000000E+00 0. -1.
          5    1    4    4  501    0 -0.29975704453E+03  0.23127297459E+03 -0.56395828408E+03  0.67927351686E+03  0.47000000000E+01 0. -1.
         -5    1    4    4    0  501 -0.34769803028E+03  0.40123061494E+03 -0.62018504702E+03  0.81641381001E+03  0.47000000000E+01 0. -1.
          1    1    1    2  502    0 -0.38547558040E+02 -0.26962126619E+02  0.18752422220E+04  0.18758321518E+04  0.00000000000E+00 0. -1.
          1    1    1    2  503    0 -0.39333564610E+02  0.66555301799E+01 -0.83044682563E+03  0.83140444766E+03  0.00000000000E+00 0. -1.
<mgrwt>
<rscale>  0 0.43321040E+02</rscale>
<asrwt>0</asrwt>
<pdfrwt beam="1">  1        2 0.64503247E+00 0.47044039E+02</pdfrwt>
<pdfrwt beam="2">  1        2 0.55003790E+00 0.39892673E+02</pdfrwt>
<totfact> 0.96210732E-02</totfact>
</mgrwt>
</event>
<event>
13    1  0.2101801E-008  0.9116479E+02  0.7546771E-02  0.1326903E+00
          2   -1    0    0  503    0  0.00000000000E+00  0.00000000000E+00  0.22129432420E+04  0.22129432420E+04  0.00000000000E+00 0. -1.
          2   -1    0    0  502    0 -0.00000000000E+00 -0.00000000000E+00 -0.14673085512E+04  0.14673085512E+04  0.00000000000E+00 0. -1.
         24    2    1    2    0    0 -0.87843661405E+02  0.33750187897E+02 -0.74707808158E+03  0.75678420184E+03  0.75769942252E+02 0.  0.
         25    2    1    2    0    0  0.21852564680E+03  0.70584743433E+02  0.42234410560E+03  0.49672673340E+03  0.12500895897E+03 0.  0.
         24    2    1    2    0    0 -0.86062140355E+01 -0.17612879407E+02 -0.39613484016E+02  0.91391858094E+02  0.79993519544E+02 0.  0.
        -11    1    5    5    0    0  0.27048689367E+02 -0.41327478896E+01 -0.45229551371E+02  0.52862307164E+02  0.00000000000E+00 0.  1.
         12    1    5    5    0    0 -0.35654903402E+02 -0.13480131517E+02  0.56160673545E+01  0.38529550930E+02  0.00000000000E+00 0. -1.
        -13    1    3    3    0    0 -0.10255606592E+01 -0.18055349508E+02 -0.16537911447E+03  0.16636495702E+03  0.00000000000E+00 0.  1.
         14    1    3    3    0    0 -0.86818100745E+02  0.51805537404E+02 -0.58169896710E+03  0.59041924482E+03  0.00000000000E+00 0. -1.
          5    1    4    4  501    0  0.17028400829E+03  0.10400050510E+03  0.29187533068E+03  0.35359022498E+03  0.47000000000E+01 0.  1.
         -5    1    4    4    0  501  0.48241638513E+02 -0.33415761667E+02  0.13046877492E+03  0.14313650842E+03  0.47000000000E+01 0.  1.
          1    1    1    2  502    0 -0.87446681640E+02 -0.24114698094E+02 -0.60857747807E+03  0.61530072940E+03  0.00000000000E+00 0. -1.
          1    1    1    2  503    0 -0.34629089721E+02 -0.62607353828E+02  0.17185596289E+04  0.17200482705E+04  0.00000000000E+00 0. -1.
<mgrwt>
<rscale>  0 0.80761944E+02</rscale>
<asrwt>0</asrwt>
<pdfrwt beam="1">  1        2 0.32543283E+00 0.71546171E+02</pdfrwt>
<pdfrwt beam="2">  1        2 0.21578067E+00 0.91164789E+02</pdfrwt>
<totfact> 0.19605333E+01</totfact>
</mgrwt>
</event>
<event>
13    1  0.2101801E-008  0.1133667E+03  0.7546771E-02  0.1338857E+00
          2   -1    0    0  502    0  0.00000000000E+00  0.00000000000E+00  0.84154495518E+03  0.84154495518E+03  0.00000000000E+00 0. -1.
          2   -1    0    0  503    0 -0.00000000000E+00 -0.00000000000E+00 -0.87407586267E+03  0.87407586267E+03  0.00000000000E+00 0. -1.
         24    2    1    2    0    0  0.52243714236E+02 -0.11175908274E+01 -0.47132854230E+03  0.48101667044E+03  0.80596450088E+02 0.  0.
         25    2    1    2    0    0 -0.41276314785E+02 -0.19593979811E+03  0.48167656344E+03  0.53640919245E+03  0.12500548522E+03 0.  0.
         24    2    1    2    0    0 -0.46320352061E+02  0.34952189326E+02 -0.15563303765E+03  0.18442028728E+03  0.80137191111E+02 0.  0.
        -11    1    5    5    0    0 -0.64920293263E+02  0.10637248287E+02 -0.12417700501E+03  0.14052659571E+03  0.00000000000E+00 0.  1.
         12    1    5    5    0    0  0.18599941202E+02  0.24314941039E+02 -0.31456032647E+02  0.43893691578E+02  0.00000000000E+00 0. -1.
        -13    1    3    3    0    0 -0.92557135302E+01 -0.27520364624E+02 -0.13312768455E+03  0.13625717998E+03  0.00000000000E+00 0.  1.
         14    1    3    3    0    0  0.61499427767E+02  0.26402773796E+02 -0.33820085775E+03  0.34475949046E+03  0.00000000000E+00 0. -1.
          5    1    4    4  501    0 -0.49453816564E+02 -0.30046600185E+02  0.21063320685E+03  0.21848779367E+03  0.47000000000E+01 0. -1.
         -5    1    4    4    0  501  0.81775017793E+01 -0.16589319792E+03  0.27104335659E+03  0.31792139878E+03  0.47000000000E+01 0. -1.
          1    1    1    2  502    0 -0.93463182630E+01  0.50965883438E+02  0.29289330165E+03  0.29744135740E+03  0.00000000000E+00 0. -1.
          1    1    1    2  503    0  0.44699270872E+02  0.11113931617E+03 -0.18013919263E+03  0.21633331028E+03  0.00000000000E+00 0. -1.
<mgrwt>
<rscale>  0 0.76643229E+02</rscale>
<asrwt>0</asrwt>
<pdfrwt beam="1">  1        2 0.12375661E+00 0.51815779E+02</pdfrwt>
<pdfrwt beam="2">  1        2 0.12854057E+00 0.11336671E+03</pdfrwt>
<totfact> 0.20296981E+02</totfact>
</mgrwt>
</event>
<event>
13    1  0.2101801E-008  0.3902088E+02  0.7546771E-02  0.1528992E+00
          2   -1    0    0  502    0  0.00000000000E+00  0.00000000000E+00  0.27357104755E+03  0.27357104755E+03  0.00000000000E+00 0. -1.
          2   -1    0    0  503    0 -0.00000000000E+00 -0.00000000000E+00 -0.22451922504E+04  0.22451922504E+04  0.00000000000E+00 0. -1.
         24    2    1    2    0    0  0.51284768027E+02  0.77453169088E+02 -0.55142361524E+03  0.56494557623E+03  0.80413803642E+02 0.  0.
         25    2    1    2    0    0  0.95821557058E+02 -0.69528947165E+02  0.12566177992E+03  0.21314479886E+03  0.12499510813E+03 0.  0.
         24    2    1    2    0    0 -0.13907613271E+03 -0.21847671314E+02 -0.11612693062E+03  0.19956199422E+03  0.80746728038E+02 0.  0.
        -11    1    3    3    0    0 -0.14002074467E+02  0.44668825670E+02 -0.15768929717E+03  0.16449096181E+03  0.00000000000E+00 0.  1.
         12    1    3    3    0    0  0.65286842494E+02  0.32784343418E+02 -0.39373431808E+03  0.40045461442E+03  0.00000000000E+00 0. -1.
        -13    1    5    5    0    0  0.40664560918E+00  0.15679304893E+02 -0.27199044722E+01  0.15918663352E+02  0.00000000000E+00 0.  1.
         14    1    5    5    0    0 -0.13948277832E+03 -0.37526976207E+02 -0.11340702615E+03  0.18364333087E+03  0.00000000000E+00 0. -1.
          5    1    4    4  501    0  0.51268321778E+02 -0.10043001254E+03  0.10725327961E+03  0.15569195299E+03  0.47000000000E+01 0.  1.
         -5    1    4    4    0  501  0.44553235280E+02  0.30901065372E+02  0.18408500305E+02  0.57452845870E+02  0.47000000000E+01 0.  1.
          1    1    1    2  502    0  0.30819054577E+02  0.17968756865E+02  0.49691557344E+02  0.61171408514E+02  0.00000000000E+00 0. -1.
          1    1    1    2  503    0 -0.38849246949E+02 -0.40453074741E+01 -0.14794239942E+04  0.14799395201E+04  0.00000000000E+00 0. -1.
<mgrwt>
<rscale>  0 0.37310340E+02</rscale>
<asrwt>0</asrwt>
<pdfrwt beam="1">  1        2 0.40231036E-01 0.35674786E+02</pdfrwt>
<pdfrwt beam="2">  1        2 0.33017534E+00 0.39020878E+02</pdfrwt>
<totfact> 0.15019503E+02</totfact>
</mgrwt>
</event>
<event>
13    1  0.2101801E-008  0.8448290E+02  0.7546771E-02  0.1476222E+00
          2   -1    0    0  503    0  0.00000000000E+00  0.00000000000E+00  0.13288791467E+04  0.13288791467E+04  0.00000000000E+00 0. -1.
          2   -1    0    0  502    0 -0.00000000000E+00 -0.00000000000E+00 -0.50531809522E+03  0.50531809522E+03  0.00000000000E+00 0. -1.
         24    2    1    2    0    0 -0.44229707112E+02 -0.16349256144E+02 -0.14475990409E+03  0.17017587899E+03  0.76031801183E+02 0.  0.
         25    2    1    2    0    0 -0.36321766983E+01 -0.95628810208E+02  0.34561946044E+03  0.37978330101E+03  0.12499792895E+03 0.  0.
         24    2    1    2    0    0  0.13405936600E+03  0.55116171375E+02  0.10692814735E+03  0.19682813442E+03  0.79359812533E+02 0.  0.
        -13    1    5    5    0    0  0.51936237110E+02  0.46152879824E+02  0.11190080393E+02  0.70375272222E+02  0.00000000000E+00 0.  1.
         14    1    5    5    0    0  0.82123128893E+02  0.89632915502E+01  0.95738066955E+02  0.12645286220E+03  0.00000000000E+00 0. -1.
        -13    1    3    3    0    0 -0.42285021518E+02 -0.39835691138E+01 -0.15051932682E+03  0.15639680181E+03  0.00000000000E+00 0.  1.
         14    1    3    3    0    0 -0.19446855943E+01 -0.12365687030E+02  0.57594227368E+01  0.13779077184E+02  0.00000000000E+00 0. -1.
          5    1    4    4  501    0 -0.28380619946E+02  0.62989084082E+01  0.15315097221E+02  0.33193042020E+02  0.47000000000E+01 0.  1.
         -5    1    4    4    0  501  0.24748443248E+02 -0.10192771862E+03  0.33030436322E+03  0.34659025899E+03  0.47000000000E+01 0.  1.
          1    1    1    2  502    0 -0.76538283592E+02  0.35273246733E+02 -0.27942638607E+03  0.29185855482E+03  0.00000000000E+00 0. -1.
          1    1    1    2  503    0 -0.96591985995E+01  0.21588648244E+02  0.79519973387E+03  0.79555137269E+03  0.00000000000E+00 0. -1.
<mgrwt>
<rscale>  0 0.44700168E+02</rscale>
<asrwt>0</asrwt>
<pdfrwt beam="1">  1        2 0.19542340E+00 0.23651001E+02</pdfrwt>
<pdfrwt beam="2">  1        2 0.74311485E-01 0.84482896E+02</pdfrwt>
<totfact> 0.22140103E+02</totfact>
</mgrwt>
</event>
<event>
13    1  0.2101801E-008  0.3330392E+02  0.7546771E-02  0.1589652E+00
          2   -1    0    0  502    0  0.00000000000E+00  0.00000000000E+00  0.13109520778E+04  0.13109520778E+04  0.00000000000E+00 0. -1.
          2   -1    0    0  503    0 -0.00000000000E+00 -0.00000000000E+00 -0.25055522977E+04  0.25055522977E+04  0.00000000000E+00 0. -1.
         24    2    1    2    0    0  0.39312655762E+03 -0.75698076777E+02 -0.16168888378E+04  0.16675409786E+04  0.78004566238E+02 0.  0.
         25    2    1    2    0    0 -0.20926918338E+03 -0.70216805995E+02 -0.92502029110E+02  0.27000958341E+03  0.12499823513E+03 0.  0.
         24    2    1    2    0    0 -0.19042814304E+03  0.13208535925E+03 -0.11028839982E+02  0.25339194224E+03  0.10186472054E+03 0.  0.
        -11    1    5    5    0    0 -0.15111302756E+03  0.45124204474E+02 -0.79560256227E+01  0.15790705897E+03  0.00000000000E+00 0.  1.
         12    1    5    5    0    0 -0.39315115482E+02  0.86961154778E+02 -0.30728143595E+01  0.95484883273E+02  0.00000000000E+00 0. -1.
        -13    1    3    3    0    0  0.16296092393E+03 -0.26295362373E+02 -0.82728909052E+03  0.84359643676E+03  0.00000000000E+00 0.  1.
         14    1    3    3    0    0  0.23016563369E+03 -0.49402714404E+02 -0.78959974725E+03  0.82394454182E+03  0.00000000000E+00 0. -1.
          5    1    4    4  501    0 -0.58350898377E+02 -0.81861894764E+02 -0.51837324562E+02  0.11320510312E+03  0.47000000000E+01 0. -1.
         -5    1    4    4    0  501 -0.15091828501E+03  0.11645088769E+02 -0.40664704548E+02  0.15680448028E+03  0.47000000000E+01 0. -1.
          1    1    1    2  502    0  0.24636397707E+02 -0.14213339317E+02  0.10749964829E+04  0.10753726839E+04  0.00000000000E+00 0. -1.
          1    1    1    2  503    0 -0.18065628902E+02  0.28042862838E+02 -0.54917699587E+03  0.55018918737E+03  0.00000000000E+00 0. -1.
<mgrwt>
<rscale>  0 0.30777328E+02</rscale>
<asrwt>0</asrwt>
<pdfrwt beam="1">  1        2 0.19278707E+00 0.28442417E+02</pdfrwt>
<pdfrwt beam="2">  1        2 0.36846357E+00 0.33303917E+02</pdfrwt>
<totfact> 0.20543410E+01</totfact>
</mgrwt>
</event>
<event>
13    1  0.2101801E-008  0.9951949E+02  0.7546771E-02  0.1434744E+00
          2   -1    0    0  502    0  0.00000000000E+00  0.00000000000E+00  0.46963683037E+03  0.46963683037E+03  0.00000000000E+00 0. -1.
          2   -1    0    0  503    0 -0.00000000000E+00 -0.00000000000E+00 -0.16935013204E+04  0.16935013204E+04  0.00000000000E+00 0. -1.
         24    2    1    2    0    0  0.14415868631E+03 -0.46064369951E+02 -0.18598170960E+03  0.25256536813E+03  0.79349958124E+02 0.  0.
         25    2    1    2    0    0 -0.21289106132E+03 -0.19891476692E+02  0.20473982895E+03  0.32133693109E+03  0.12498300239E+03 0.  0.
         24    2    1    2    0    0  0.22554020017E+02  0.43192087535E+01 -0.13229575268E+03  0.15687340632E+03  0.81115720128E+02 0.  0.
        -13    1    5    5    0    0 -0.27827597159E+02  0.16091657446E+02 -0.43248317695E+02  0.53886302400E+02  0.00000000000E+00 0.  1.
         14    1    5    5    0    0  0.50381617176E+02 -0.11772448692E+02 -0.89047434983E+02  0.10298710392E+03  0.00000000000E+00 0. -1.
        -13    1    3    3    0    0  0.52626330122E+02 -0.40183733734E+02 -0.32486416297E+02  0.73753849545E+02  0.00000000000E+00 0.  1.
         14    1    3    3    0    0  0.91532356190E+02 -0.58806362166E+01 -0.15349529331E+03  0.17881151859E+03  0.00000000000E+00 0. -1.
          5    1    4    4  501    0 -0.22626932115E+03 -0.32092312220E+02  0.18427155536E+03  0.29360827357E+03  0.47000000000E+01 0.  1.
         -5    1    4    4    0  501  0.13378259827E+02  0.12200835528E+02  0.20468273599E+02  0.27728657517E+02  0.47000000000E+01 0.  1.
          1    1    1    2  502    0 -0.20547267292E+02 -0.17808852300E+02  0.15773598993E+03  0.16006245010E+03  0.00000000000E+00 0. -1.
          1    1    1    2  503    0  0.66725622288E+02  0.79445490189E+02 -0.12680628466E+04  0.12722999951E+04  0.00000000000E+00 0. -1.
<mgrwt>
<rscale>  0 0.52019468E+02</rscale>
<asrwt>0</asrwt>
<pdfrwt beam="1">  1        2 0.69064240E-01 0.27190907E+02</pdfrwt>
<pdfrwt beam="2">  1        2 0.24904431E+00 0.99519486E+02</pdfrwt>
<totfact> 0.14331743E+02</totfact>
</mgrwt>
</event>
<event>
13    1  0.2101801E-008  0.6084642E+02  0.7546771E-02  0.1419443E+00
          2   -1    0    0  503    0  0.00000000000E+00  0.00000000000E+00  0.16340382593E+04  0.16340382593E+04  0.00000000000E+00 0. -1.
          2   -1    0    0  502    0 -0.00000000000E+00 -0.00000000000E+00 -0.17897306460E+04  0.17897306460E+04  0.00000000000E+00 0. -1.
         24    2    1    2    0    0  0.25455163304E+03  0.12372178211E+03 -0.32261641545E+03  0.43710701104E+03  0.82931142115E+02 0.  0.
         25    2    1    2    0    0 -0.24219824940E+03 -0.52779081916E+03  0.67294939115E+03  0.89761333203E+03  0.12500267989E+03 0.  0.
         24    2    1    2    0    0 -0.82300688725E+02  0.32208302192E+03 -0.26112363925E+03  0.43108291941E+03  0.84475156422E+02 0.  0.
        -13    1    3    3    0    0 -0.22776253177E+01  0.15810382372E+02 -0.12855587579E+02  0.20504192250E+02  0.00000000000E+00 0.  1.
         14    1    3    3    0    0  0.25682925835E+03  0.10791139974E+03 -0.30976082787E+03  0.41660281879E+03  0.00000000000E+00 0. -1.
        -13    1    5    5    0    0 -0.37177959035E+02  0.70841900603E+02 -0.26237552143E+02  0.84197296046E+02  0.00000000000E+00 0.  1.
         14    1    5    5    0    0 -0.45122729689E+02  0.25124112132E+03 -0.23488608711E+03  0.34688562336E+03  0.00000000000E+00 0. -1.
          5    1    4    4  501    0 -0.96156810168E+02 -0.33377902783E+03  0.34576443446E+03  0.49013233489E+03  0.47000000000E+01 0. -1.
         -5    1    4    4    0  501 -0.14604143923E+03 -0.19401179133E+03  0.32718495669E+03  0.40748099714E+03  0.47000000000E+01 0. -1.
          1    1    1    2  502    0  0.41016643771E+02  0.28536541656E+02 -0.94946849881E+03  0.95078237758E+03  0.00000000000E+00 0. -1.
          1    1    1    2  503    0  0.28930661319E+02  0.53449473464E+02  0.70456677565E+03  0.70718326531E+03  0.00000000000E+00 0. -1.
<mgrwt>
<rscale>  0 0.55139023E+02</rscale>
<asrwt>0</asrwt>
<pdfrwt beam="1">  1        2 0.24029974E+00 0.60846418E+02</pdfrwt>
<pdfrwt beam="2">  1        2 0.26319568E+00 0.49966982E+02</pdfrwt>
<totfact> 0.27681333E+01</totfact>
</mgrwt>
</event>
<event>
13    1  0.2101801E-008  0.1043047E+03  0.7546771E-02  0.1288878E+00
          2   -1    0    0  503    0  0.00000000000E+00  0.00000000000E+00  0.11174079206E+04  0.11174079206E+04  0.00000000000E+00 0. -1.
          2   -1    0    0  502    0 -0.00000000000E+00 -0.00000000000E+00 -0.10979631712E+04  0.10979631712E+04  0.00000000000E+00 0. -1.
         24    2    1    2    0    0  0.42950040202E+02  0.94834677342E+02 -0.57516202554E+02  0.16224110045E+03  0.11034373177E+03 0.  0.
         25    2    1    2    0    0 -0.95836086348E+02  0.70348164689E+02  0.33134821024E+03  0.37356163926E+03  0.12499296850E+03 0.  0.
         24    2    1    2    0    0  0.21562488870E+01 -0.69201688674E+02  0.98008567748E+02  0.14397972267E+03  0.79567317808E+02 0.  0.
        -11    1    5    5    0    0 -0.32076121528E+02 -0.35611634369E+02  0.78976565746E+02  0.92381621612E+02  0.00000000000E+00 0.  1.
         12    1    5    5    0    0  0.34232370415E+02 -0.33590054305E+02  0.19032002002E+02  0.51598101056E+02  0.00000000000E+00 0. -1.
        -13    1    3    3    0    0  0.48572108878E+02  0.25437936894E+02 -0.72623023647E+02  0.90996933783E+02  0.00000000000E+00 0.  1.
         14    1    3    3    0    0 -0.56220686763E+01  0.69396740448E+02  0.15106821093E+02  0.71244166670E+02  0.00000000000E+00 0. -1.
          5    1    4    4  501    0 -0.11391798458E+03  0.75651593339E+02  0.32579508327E+03  0.35336241604E+03  0.47000000000E+01 0. -1.
         -5    1    4    4    0  501  0.18081898237E+02 -0.53034286494E+01  0.55531269609E+01  0.20199223211E+02  0.47000000000E+01 0. -1.
          1    1    1    2  502    0 -0.51710793914E+02 -0.71706780990E+02 -0.93721179597E+03  0.94137230634E+03  0.00000000000E+00 0. -1.
          1    1    1    2  503    0  0.10244059117E+03 -0.24274372368E+02  0.58481596999E+03  0.59421632309E+03  0.00000000000E+00 0. -1.
<mgrwt>
<rscale>  0 0.96027632E+02</rscale>
<asrwt>0</asrwt>
<pdfrwt beam="1">  1        2 0.16432470E+00 0.10430468E+03</pdfrwt>
<pdfrwt beam="2">  1        2 0.16146517E+00 0.88407402E+02</pdfrwt>
<totfact> 0.10211732E+02</totfact>
</mgrwt>
</event>
<event>
13    1  0.2101801E-008  0.1206049E+03  0.7546771E-02  0.1418071E+00
          2   -1    0    0  502    0  0.00000000000E+00  0.00000000000E+00  0.11418319146E+04  0.11418319146E+04  0.00000000000E+00 0. -1.
          2   -1    0    0  503    0 -0.00000000000E+00 -0.00000000000E+00 -0.33966543190E+04  0.33966543190E+04  0.00000000000E+00 0. -1.
         24    2    1    2    0    0 -0.39269765321E+02  0.20160542009E+03 -0.12103204058E+04  0.12302590486E+04  0.80467273789E+02 0.  0.
         25    2    1    2    0    0 -0.40787041212E+02 -0.25513548866E+03 -0.10912248923E+04  0.11283414262E+04  0.12499963315E+03 0.  0.
         24    2    1    2    0    0 -0.50630947470E+02  0.10500746264E+03  0.35074807938E-01  0.14112093130E+03  0.79530220476E+02 0.  0.
        -11    1    3    3    0    0  0.30745984473E+01  0.49795063191E+01 -0.20142176522E+03  0.20150676451E+03  0.00000000000E+00 0.  1.
         12    1    3    3    0    0 -0.42344363769E+02  0.19662591377E+03 -0.10088986406E+04  0.10287522841E+04  0.00000000000E+00 0. -1.
        -13    1    5    5    0    0 -0.74613827753E+01  0.60253432540E+02  0.34699450389E+02  0.69929966560E+02  0.00000000000E+00 0.  1.
         14    1    5    5    0    0 -0.43169564695E+02  0.44754030096E+02 -0.34664375581E+02  0.71190964737E+02  0.00000000000E+00 0. -1.
          5    1    4    4  501    0 -0.59473862531E+02 -0.23169955432E+03 -0.78589179221E+03  0.82150460915E+03  0.47000000000E+01 0.  1.
         -5    1    4    4    0  501  0.18686821318E+02 -0.23435934339E+02 -0.30533310005E+03  0.30683681704E+03  0.47000000000E+01 0.  1.
          1    1    1    2  502    0  0.14730815331E+03 -0.70786038215E+02  0.10361573802E+04  0.10489673359E+04  0.00000000000E+00 0. -1.
          1    1    1    2  503    0 -0.16620399307E+02  0.19308644149E+02 -0.98946956134E+03  0.98979749152E+03  0.00000000000E+00 0. -1.
<mgrwt>
<rscale>  0 0.55431164E+02</rscale>
<asrwt>0</asrwt>
<pdfrwt beam="1">  1        2 0.16791646E+00 0.12060494E+03</pdfrwt>
<pdfrwt beam="2">  1        2 0.49950797E+00 0.25476684E+02</pdfrwt>
<totfact> 0.85729259E+00</totfact>
</mgrwt>
</event>
<event>
13    1  0.2101801E-008  0.1200586E+03  0.7546771E-02  0.1405020E+00
          2   -1    0    0  503    0  0.00000000000E+00  0.00000000000E+00  0.38786723425E+03  0.38786723425E+03  0.00000000000E+00 0. -1.
          2   -1    0    0  502    0 -0.00000000000E+00 -0.00000000000E+00 -0.21004660603E+04  0.21004660603E+04  0.00000000000E+00 0. -1.
         24    2    1    2    0    0 -0.48316167933E+02  0.26390784519E+02 -0.95464138069E+03  0.95986347190E+03  0.83467319288E+02 0.  0.
         25    2    1    2    0    0  0.13424390531E+03  0.12326691855E+03 -0.65442697027E+02  0.23048712339E+03  0.12500163251E+03 0.  0.
         24    2    1    2    0    0  0.14102035263E+02 -0.43886869121E+02 -0.54347470420E+02  0.10767256202E+03  0.80714362975E+02 0.  0.
        -11    1    5    5    0    0 -0.13594727293E+02  0.13180906307E+02  0.62559893313E+01  0.19942173997E+02  0.00000000000E+00 0.  1.
         12    1    5    5    0    0  0.27696762556E+02 -0.57067775427E+02 -0.60603459751E+02  0.87730388020E+02  0.00000000000E+00 0. -1.
        -13    1    3    3    0    0 -0.55451635653E+02 -0.98169152926E+01 -0.73400324972E+03  0.73616032651E+03  0.00000000000E+00 0.  1.
         14    1    3    3    0    0  0.71354677206E+01  0.36207699812E+02 -0.22063813096E+03  0.22370314540E+03  0.00000000000E+00 0. -1.
          5    1    4    4  501    0  0.57579852843E+02  0.43684258058E+02  0.35577149721E+02  0.80694345761E+02  0.47000000000E+01 0.  1.
         -5    1    4    4    0  501  0.76664052472E+02  0.79582660488E+02 -0.10101984675E+03  0.14979277763E+03  0.47000000000E+01 0.  1.
          1    1    1    2  502    0 -0.77660227258E+00 -0.28319176342E+02 -0.89965101100E+03  0.90009695058E+03  0.00000000000E+00 0. -1.
          1    1    1    2  503    0 -0.99253170372E+02 -0.77451657603E+02  0.26148373304E+03  0.29021318671E+03  0.00000000000E+00 0. -1.
<mgrwt>
<rscale>  0 0.58320133E+02</rscale>
<asrwt>0</asrwt>
<pdfrwt beam="1">  1        2 0.57039301E-01 0.12005857E+03</pdfrwt>
<pdfrwt beam="2">  1        2 0.30889206E+00 0.28329823E+02</pdfrwt>
<totfact> 0.12843518E+02</totfact>
</mgrwt>
</event>
<event>
13    1  0.2101801E-008  0.2366105E+03  0.7546771E-02  0.1189833E+00
          2   -1    0    0  503    0  0.00000000000E+00  0.00000000000E+00  0.17933034765E+04  0.17933034765E+04  0.00000000000E+00 0. -1.
         -3   -1    0    0    0  501 -0.00000000000E+00 -0.00000000000E+00 -0.70505199652E+03  0.70505199652E+03  0.00000000000E+00 0.  1.
         24    2    1    2    0    0 -0.20449329996E+02  0.10371700882E+02 -0.11831374731E+03  0.14539632538E+03  0.81340035368E+02 0.  0.
         25    2    1    2    0    0 -0.14004977162E+03 -0.39076685000E+03  0.18079322111E+03  0.46970569577E+03  0.12499832900E+03 0.  0.
         24    2    1    2    0    0  0.82339300729E+02 -0.13551509312E+03  0.26297133942E+03  0.31803017998E+03  0.82735537194E+02 0.  0.
        -11    1    3    3    0    0 -0.39774565371E+02  0.19007789024E+02 -0.27073269629E+02  0.51732717138E+02  0.00000000000E+00 0.  1.
         12    1    3    3    0    0  0.19325235375E+02 -0.86360881418E+01 -0.91240477682E+02  0.93663608239E+02  0.00000000000E+00 0. -1.
        -13    1    5    5    0    0  0.91465961147E+02 -0.78015469295E+02  0.18714586975E+03  0.22243203920E+03  0.00000000000E+00 0.  1.
         14    1    5    5    0    0 -0.91266604185E+01 -0.57499623823E+02  0.75825469676E+02  0.95598140786E+02  0.00000000000E+00 0. -1.
          5    1    4    4  502    0 -0.10027608527E+03 -0.28285777797E+03  0.18836578451E+03  0.35435515322E+03  0.47000000000E+01 0. -1.
         -5    1    4    4    0  502 -0.39773686350E+02 -0.10790907202E+03 -0.75725633991E+01  0.11535054255E+03  0.47000000000E+01 0. -1.
          1    1    1    2  503    0  0.70186523906E+02  0.38758119456E+03  0.11191214889E+04  0.11864140245E+04  0.00000000000E+00 0. -1.
         -4    1    1    2    0  501  0.79732769837E+01  0.12832904767E+03 -0.35632082216E+03  0.37880924741E+03  0.00000000000E+00 0.  1.
<mgrwt>
<rscale>  0 0.15899743E+03</rscale>
<asrwt>0</asrwt>
<pdfrwt beam="1">  1        2 0.26372110E+00 0.23661054E+03</pdfrwt>
<pdfrwt beam="2">  1       -3 0.10368412E+00 0.10684301E+03</pdfrwt>
<totfact> 0.54569663E+00</totfact>
</mgrwt>
</event>
<event>
13    1  0.2101801E-008  0.8546337E+02  0.7546771E-02  0.1378798E+00
          2   -1    0    0  503    0  0.00000000000E+00  0.00000000000E+00  0.11087648813E+04  0.11087648813E+04  0.00000000000E+00 0. -1.
          2   -1    0    0  502    0 -0.00000000000E+00 -0.00000000000E+00 -0.19504344950E+04  0.19504344950E+04  0.00000000000E+00 0. -1.
         24    2    1    2    0    0  0.34424011245E+02  0.34783106891E+02 -0.14585032655E+03  0.17186306210E+03  0.76614080185E+02 0.  0.
         25    2    1    2    0    0 -0.91761346464E+02 -0.11023148361E+03 -0.10198570341E+04  0.10374510817E+04  0.12500100859E+03 0.  0.
         24    2    1    2    0    0 -0.66859126012E+01 -0.36436511742E+02  0.20331853135E+02  0.90820489532E+02  0.80390647788E+02 0.  0.
        -13    1    5    5    0    0 -0.24784691627E+02  0.18324828974E+02  0.79391242575E+01  0.31829388778E+02  0.00000000000E+00 0.  1.
         14    1    5    5    0    0  0.18098779026E+02 -0.54761340715E+02  0.12392728877E+02  0.58991100754E+02  0.00000000000E+00 0. -1.
        -13    1    3    3    0    0  0.36984293122E+02  0.49570596582E+02 -0.65351386186E+02  0.89977139651E+02  0.00000000000E+00 0.  1.
         14    1    3    3    0    0 -0.25602818773E+01 -0.14787489691E+02 -0.80498940367E+02  0.81885922446E+02  0.00000000000E+00 0. -1.
          5    1    4    4  501    0 -0.45600485017E+02 -0.33092669467E+02 -0.11519961766E+03  0.12832603366E+03  0.47000000000E+01 0. -1.
         -5    1    4    4    0  501 -0.46160861447E+02 -0.77138814148E+02 -0.90465741648E+03  0.90912504804E+03  0.47000000000E+01 0. -1.
          1    1    1    2  502    0 -0.19442863042E+02  0.45090026742E+02 -0.72407556087E+03  0.72573862602E+03  0.00000000000E+00 0. -1.
          1    1    1    2  503    0  0.83466110861E+02  0.66794861724E+02  0.10277814548E+04  0.10333261170E+04  0.00000000000E+00 0. -1.
<mgrwt>
<rscale>  0 0.64780667E+02</rscale>
<asrwt>0</asrwt>
<pdfrwt beam="1">  1        2 0.16305366E+00 0.85463374E+02</pdfrwt>
<pdfrwt beam="2">  1        2 0.28682860E+00 0.49103314E+02</pdfrwt>
<totfact> 0.41825362E+01</totfact>
</mgrwt>
</event>
<event>
13    1  0.2101801E-008  0.5513317E+02  0.7546771E-02  0.1551805E+00
          2   -1    0    0  502    0  0.00000000000E+00  0.00000000000E+00  0.13701236945E+04  0.13701236945E+04  0.00000000000E+00 0. -1.
          2   -1    0    0  503    0 -0.00000000000E+00 -0.00000000000E+00 -0.23574108581E+04  0.23574108581E+04  0.00000000000E+00 0. -1.
         24    2    1    2    0    0  0.44079638470E+02  0.26653892647E+00 -0.30517615790E+03  0.31848721665E+03  0.79740417927E+02 0.  0.
         25    2    1    2    0    0  0.49252112233E+02  0.77462184921E+02  0.98149409775E+02  0.18353721148E+03  0.12500576269E+03 0.  0.
         24    2    1    2    0    0 -0.45450399422E+02 -0.77411265021E+02 -0.13304254227E+04  0.13358072188E+04  0.79315053233E+02 0.  0.
        -11    1    3    3    0    0  0.50996844487E+02  0.14348172358E+02 -0.10414594452E+03  0.11684573573E+03  0.00000000000E+00 0.  1.
         12    1    3    3    0    0 -0.69172060174E+01 -0.14081633432E+02 -0.20103021338E+03  0.20164148092E+03  0.00000000000E+00 0. -1.
        -11    1    5    5    0    0  0.19393101633E+02 -0.98272289364E+00 -0.24080541263E+03  0.24158705447E+03  0.00000000000E+00 0.  1.
         12    1    5    5    0    0 -0.64843501055E+02 -0.76428542128E+02 -0.10896200101E+04  0.10942201644E+04  0.00000000000E+00 0. -1.
          5    1    4    4  501    0  0.57333353097E+02  0.10300321491E+03  0.10213793042E+03  0.15604814158E+03  0.47000000000E+01 0.  1.
         -5    1    4    4    0  501 -0.80812408644E+01 -0.25541029990E+02 -0.39885206487E+01  0.27489069897E+02  0.47000000000E+01 0.  1.
          1    1    1    2  502    0 -0.50881526157E+02  0.21241171193E+02  0.12191338499E+04  0.12203800478E+04  0.00000000000E+00 0. -1.
          1    1    1    2  503    0  0.30001748765E+01 -0.21558630020E+02 -0.66896884265E+03  0.66932285783E+03  0.00000000000E+00 0. -1.
<mgrwt>
<rscale>  0 0.34641736E+02</rscale>
<asrwt>0</asrwt>
<pdfrwt beam="1">  1        2 0.20148878E+00 0.55133170E+02</pdfrwt>
<pdfrwt beam="2">  1        2 0.34667806E+00 0.21766386E+02</pdfrwt>
<totfact> 0.22844077E+01</totfact>
</mgrwt>
</event>
<event>
13    1  0.2101801E-008  0.2416852E+03  0.7546771E-02  0.1194985E+00
          2   -1    0    0  503    0  0.00000000000E+00  0.00000000000E+00  0.24874844243E+04  0.24874844243E+04  0.00000000000E+00 0. -1.
          2   -1    0    0  502    0 -0.00000000000E+00 -0.00000000000E+00 -0.22457192807E+04  0.22457192807E+04  0.00000000000E+00 0. -1.
         24    2    1    2    0    0 -0.17743497781E+02  0.86815116886E+02 -0.12058581658E+04  0.12116227723E+04  0.78000833642E+02 0.  0.
         25    2    1    2    0    0 -0.21374623983E+03  0.14526405867E+03  0.62039945194E+02  0.29370443156E+03  0.12499694609E+03 0.  0.
         24    2    1    2    0    0 -0.12162634427E+02  0.31140161699E+02 -0.16223647205E+03  0.18392257651E+03  0.79932483635E+02 0.  0.
        -11    1    3    3    0    0 -0.36344477914E+02  0.12019107746E+02 -0.28774454898E+03  0.29027970217E+03  0.00000000000E+00 0.  1.
         12    1    3    3    0    0  0.18600980133E+02  0.74796009140E+02 -0.91811361685E+03  0.92134307014E+03  0.00000000000E+00 0. -1.
        -13    1    5    5    0    0 -0.21917261145E+02  0.47516798149E+02 -0.15489643214E+03  0.16349653554E+03  0.00000000000E+00 0.  1.
         14    1    5    5    0    0  0.97546267185E+01 -0.16376636450E+02 -0.73400399021E+01  0.20426040967E+02  0.00000000000E+00 0. -1.
          5    1    4    4  501    0 -0.13052306688E+03  0.14051012226E+02  0.34703290039E+02  0.13586798840E+03  0.47000000000E+01 0. -1.
         -5    1    4    4    0  501 -0.83223172953E+02  0.13121304644E+03  0.27336655155E+02  0.15783644316E+03  0.47000000000E+01 0. -1.
          1    1    1    2  502    0  0.10196008745E+03 -0.67573477296E+02 -0.73665570238E+03  0.74674202916E+03  0.00000000000E+00 0. -1.
          1    1    1    2  503    0  0.14169228459E+03 -0.19564585996E+03  0.22844755387E+04  0.22972118955E+04  0.00000000000E+00 0. -1.
<mgrwt>
<rscale>  0 0.15455468E+03</rscale>
<asrwt>0</asrwt>
<pdfrwt beam="1">  1        2 0.36580654E+00 0.24168520E+03</pdfrwt>
<pdfrwt beam="2">  1        2 0.33025283E+00 0.98835797E+02</pdfrwt>
<totfact> 0.51743206E+00</totfact>
</mgrwt>
</event>
<event>
13    1  0.2101801E-008  0.1150853E+03  0.7546771E-02  0.1297569E+00
          2   -1    0    0  503    0  0.00000000000E+00  0.00000000000E+00  0.13892708658E+04  0.13892708658E+04  0.00000000000E+00 0. -1.
         -1   -1    0    0    0  501 -0.00000000000E+00 -0.00000000000E+00 -0.65460753041E+03  0.65460753041E+03  0.00000000000E+00 0.  1.
         24    2    1    2    0    0 -0.26464112627E+02 -0.22792260685E+02 -0.62578396658E+02  0.10778831424E+03  0.80513530261E+02 0.  0.
         25    2    1    2    0    0 -0.30234510413E+02  0.17717644317E+03  0.28912689969E+03  0.36266282888E+03  0.12499738275E+03 0.  0.
         24    2    1    2    0    0  0.49068714816E+02 -0.41520395551E+02 -0.96210414663E+02  0.14712824968E+03  0.90876817419E+02 0.  0.
        -11    1    3    3    0    0 -0.50485750913E+02  0.11829878051E+00 -0.53092547127E+02  0.73264204086E+02  0.00000000000E+00 0.  1.
         12    1    3    3    0    0  0.24021638286E+02 -0.22910559465E+02 -0.94858495312E+01  0.34524110159E+02  0.00000000000E+00 0. -1.
        -13    1    5    5    0    0  0.29044481197E+02 -0.70353067338E+02 -0.68636725177E+02  0.10248968736E+03  0.00000000000E+00 0.  1.
         14    1    5    5    0    0  0.20024233620E+02  0.28832671786E+02 -0.27573689487E+02  0.44638562323E+02  0.00000000000E+00 0. -1.
          5    1    4    4  502    0  0.38947681735E+02  0.75272189557E+02  0.65120415717E+02  0.10698403141E+03  0.47000000000E+01 0.  1.
         -5    1    4    4    0  502 -0.69182192148E+02  0.10190425361E+03  0.22400648397E+03  0.25567879747E+03  0.47000000000E+01 0.  1.
          1    1    1    2  503    0  0.76670242967E+02 -0.86526815541E+02  0.10086620258E+04  0.10152656294E+04  0.00000000000E+00 0. -1.
         -2    1    1    2    0  501 -0.69040334743E+02 -0.26336971390E+02 -0.40433677877E+03  0.41103337401E+03  0.00000000000E+00 0.  1.
<mgrwt>
<rscale>  0 0.92217240E+02</rscale>
<asrwt>0</asrwt>
<pdfrwt beam="1">  1        2 0.20430454E+00 0.11508529E+03</pdfrwt>
<pdfrwt beam="2">  1       -1 0.96265813E-01 0.73893192E+02</pdfrwt>
<totfact> 0.24020031E+01</totfact>
</mgrwt>
</event>
<event>
13    1  0.2101801E-008  0.3520533E+02  0.7546771E-02  0.1585122E+00
          2   -1    0    0  502    0  0.00000000000E+00  0.00000000000E+00  0.21758129295E+04  0.21758129295E+04  0.00000000000E+00 0. -1.
          2   -1    0    0  503    0 -0.00000000000E+00 -0.00000000000E+00 -0.82042475287E+03  0.82042475287E+03  0.00000000000E+00 0. -1.
         24    2    1    2    0    0 -0.89020512230E+01  0.32545682438E+02 -0.20439518919E+03  0.22144296821E+03  0.78237630631E+02 0.  0.
         25    2    1    2    0    0  0.17255777215E+02 -0.10856027999E+03  0.37187306746E+03  0.40742829560E+03  0.12500056604E+03 0.  0.
         24    2    1    2    0    0  0.21125762182E+01  0.13268980056E+03  0.19497383315E+02  0.15729215577E+03  0.82156120654E+02 0.  0.
        -13    1    3    3    0    0 -0.31436752825E+02 -0.11343071003E+02 -0.57776237168E+02  0.66745998151E+02  0.00000000000E+00 0.  1.
         14    1    3    3    0    0  0.22534701602E+02  0.43888753441E+02 -0.14661895202E+03  0.15469697006E+03  0.00000000000E+00 0. -1.
        -13    1    5    5    0    0  0.29462204794E+02  0.12760633817E+02 -0.29883398374E+01  0.32245704547E+02  0.00000000000E+00 0.  1.
         14    1    5    5    0    0 -0.27349628576E+02  0.11992916674E+03  0.22485723152E+02  0.12504645122E+03  0.00000000000E+00 0. -1.
          5    1    4    4  501    0  0.44585281899E+02  0.50487399199E+01  0.14978568710E+03  0.15643266665E+03  0.47000000000E+01 0. -1.
         -5    1    4    4    0  501 -0.27329504684E+02 -0.11360901991E+03  0.22208738036E+03  0.25099562894E+03  0.47000000000E+01 0. -1.
          1    1    1    2  502    0  0.62491183783E+01 -0.34634628252E+02  0.16886928173E+04  0.16890595135E+04  0.00000000000E+00 0. -1.
          1    1    1    2  503    0 -0.16715420588E+02 -0.22040574749E+02 -0.52027990228E+03  0.52101474925E+03  0.00000000000E+00 0. -1.
<mgrwt>
<rscale>  0 0.31206628E+02</rscale>
<asrwt>0</asrwt>
<pdfrwt beam="1">  1        2 0.31997249E+00 0.35205330E+02</pdfrwt>
<pdfrwt beam="2">  1        2 0.12065070E+00 0.27662108E+02</pdfrwt>
<totfact> 0.52661120E+01</totfact>
</mgrwt>
</event>
<event>
13    1  0.2101801E-008  0.5400948E+02  0.7546771E-02  0.1550849E+00
          2   -1    0    0  503    0  0.00000000000E+00  0.00000000000E+00  0.18432116075E+03  0.18432116075E+03  0.00000000000E+00 0. -1.
          2   -1    0    0  502    0 -0.00000000000E+00 -0.00000000000E+00 -0.20516459064E+04  0.20516459064E+04  0.00000000000E+00 0. -1.
         24    2    1    2    0    0 -0.39350981665E+02  0.29007877798E+02 -0.95295588598E+03  0.95750794457E+03  0.79414019874E+02 0.  0.
         25    2    1    2    0    0  0.11863686678E+03  0.17832634916E+01 -0.20317011246E+03  0.26642485775E+03  0.12500489606E+03 0.  0.
         24    2    1    2    0    0 -0.10355260411E+02  0.10335219385E+01  0.31163636690E+02  0.76474464063E+02  0.69057018588E+02 0.  0.
        -11    1    5    5    0    0 -0.22438740146E+02  0.28929140734E+02  0.61885721687E+01  0.37130724049E+02  0.00000000000E+00 0.  1.
         12    1    5    5    0    0  0.12083479735E+02 -0.27895618795E+02  0.24975064522E+02  0.39343740014E+02  0.00000000000E+00 0. -1.
        -13    1    3    3    0    0  0.24274244875E+02  0.71967022639E+01 -0.21231743096E+03  0.21382170839E+03  0.00000000000E+00 0.  1.
         14    1    3    3    0    0 -0.63625226540E+02  0.21811175534E+02 -0.74063845502E+03  0.74368623618E+03  0.00000000000E+00 0. -1.
          5    1    4    4  501    0 -0.19033857801E+02  0.22148883835E+02 -0.17599379668E+02  0.34419310897E+02  0.47000000000E+01 0. -1.
         -5    1    4    4    0  501  0.13767072458E+03 -0.20365620344E+02 -0.18557073280E+03  0.23200554685E+03  0.47000000000E+01 0. -1.
          1    1    1    2  502    0 -0.21403979602E+02 -0.64542203551E+01 -0.83128751569E+03  0.83158807173E+03  0.00000000000E+00 0. -1.
          1    1    1    2  503    0 -0.47526645098E+02 -0.25370442873E+02  0.88925131822E+02  0.10397172902E+03  0.00000000000E+00 0. -1.
<mgrwt>
<rscale>  0 0.34748118E+02</rscale>
<asrwt>0</asrwt>
<pdfrwt beam="1">  1        2 0.27106052E-01 0.54009476E+02</pdfrwt>
<pdfrwt beam="2">  1        2 0.30171265E+00 0.22355923E+02</pdfrwt>
<totfact> 0.30069216E+02</totfact>
</mgrwt>
</event>
<event>
13    1  0.2101801E-008  0.2251086E+03  0.7546771E-02  0.1225964E+00
          2   -1    0    0  503    0  0.00000000000E+00  0.00000000000E+00  0.17577463686E+04  0.17577463686E+04  0.00000000000E+00 0. -1.
          2   -1    0    0  502    0 -0.00000000000E+00 -0.00000000000E+00 -0.12600987820E+04  0.12600987820E+04  0.00000000000E+00 0. -1.
         24    2    1    2    0    0 -0.92991658067E+01 -0.32333776792E+02 -0.10588255441E+02  0.89106864240E+02  0.81828934339E+02 0.  0.
         25    2    1    2    0    0  0.22189799133E+03  0.23608502382E+03  0.32094820544E+03  0.47287331934E+03  0.12500627400E+03 0.  0.
         24    2    1    2    0    0 -0.49101194445E+02  0.27512007012E+02 -0.18632661658E+02  0.10116211555E+03  0.81968040824E+02 0.  0.
        -11    1    3    3    0    0  0.12867049458E+01  0.24248998568E+02  0.12224832163E+02  0.27186689070E+02  0.00000000000E+00 0.  1.
         12    1    3    3    0    0 -0.10585870752E+02 -0.56582775360E+02 -0.22813087604E+02  0.61920175170E+02  0.00000000000E+00 0. -1.
        -13    1    5    5    0    0 -0.64278587373E+02  0.23691533317E+02 -0.36325208484E+02  0.77540610760E+02  0.00000000000E+00 0.  1.
         14    1    5    5    0    0  0.15177392929E+02  0.38204736951E+01  0.17692546826E+02  0.23621504791E+02  0.00000000000E+00 0. -1.
          5    1    4    4  501    0  0.80580421183E+02  0.17363875670E+03  0.15775794856E+03  0.24809933986E+03  0.47000000000E+01 0. -1.
         -5    1    4    4    0  501  0.14131757014E+03  0.62446267120E+02  0.16319025688E+03  0.22477397948E+03  0.47000000000E+01 0. -1.
          1    1    1    2  502    0 -0.92931232814E+02 -0.20238501792E+03 -0.10616929688E+04  0.10847985386E+04  0.00000000000E+00 0. -1.
          1    1    1    2  503    0 -0.70566398262E+02 -0.28878236118E+02  0.12676132670E+04  0.12699043129E+04  0.00000000000E+00 0. -1.
<mgrwt>
<rscale>  0 0.13101070E+03</rscale>
<asrwt>0</asrwt>
<pdfrwt beam="1">  1        2 0.25849211E+00 0.76246764E+02</pdfrwt>
<pdfrwt beam="2">  1        2 0.18530864E+00 0.22510862E+03</pdfrwt>
<totfact> 0.38582400E+01</totfact>
</mgrwt>
</event>
<event>
13    1  0.2101801E-008  0.8403877E+02  0.7546771E-02  0.1365881E+00
          2   -1    0    0  503    0  0.00000000000E+00  0.00000000000E+00  0.10540040064E+04  0.10540040064E+04  0.00000000000E+00 0. -1.
          2   -1    0    0  502    0 -0.00000000000E+00 -0.00000000000E+00 -0.10221837395E+04  0.10221837395E+04  0.00000000000E+00 0. -1.
         24    2    1    2    0    0 -0.60294719491E+02  0.42000832179E+02 -0.28811142271E+03  0.30830271924E+03  0.81503691283E+02 0.  0.
         25    2    1    2    0    0  0.31349677447E+02  0.18722295484E+02  0.16681211954E+03  0.21162293120E+03  0.12499862062E+03 0.  0.
         24    2    1    2    0    0  0.93445948043E+01 -0.20509257628E+02  0.26162445500E+01  0.70462468203E+02  0.66709546463E+02 0.  0.
        -11    1    3    3    0    0 -0.31539835733E+02  0.65191888503E+02 -0.20253158545E+03  0.21509018264E+03  0.00000000000E+00 0.  1.
         12    1    3    3    0    0 -0.28754883758E+02 -0.23191056325E+02 -0.85579837264E+02  0.93212536600E+02  0.00000000000E+00 0. -1.
        -13    1    5    5    0    0 -0.19115530496E+02 -0.28906577616E+02  0.15684144587E+02  0.38039270853E+02  0.00000000000E+00 0.  1.
         14    1    5    5    0    0  0.28460125300E+02  0.83973199878E+01 -0.13067900036E+02  0.32423197351E+02  0.00000000000E+00 0. -1.
          5    1    4    4  501    0  0.41584909743E+02 -0.36848030819E+02  0.13623277127E+03  0.14720237791E+03  0.47000000000E+01 0. -1.
         -5    1    4    4    0  501 -0.10235232295E+02  0.55570326303E+02  0.30579348276E+02  0.64420553292E+02  0.47000000000E+01 0. -1.
          1    1    1    2  502    0 -0.55512116107E+02 -0.20618710796E+01 -0.66431705881E+03  0.66663558334E+03  0.00000000000E+00 0. -1.
          1    1    1    2  503    0  0.75112563346E+02 -0.38151998955E+02  0.81482038428E+03  0.81916404391E+03  0.00000000000E+00 0. -1.
<mgrwt>
<rscale>  0 0.68325594E+02</rscale>
<asrwt>0</asrwt>
<pdfrwt beam="1">  1        2 0.15500059E+00 0.84038769E+02</pdfrwt>
<pdfrwt beam="2">  1        2 0.15032114E+00 0.55550395E+02</pdfrwt>
<totfact> 0.12630251E+02</totfact>
</mgrwt>
</event>
<event>
13    1  0.2101801E-008  0.1264942E+03  0.7546771E-02  0.1392131E+00
          2   -1    0    0  502    0  0.00000000000E+00  0.00000000000E+00  0.27810164991E+03  0.27810164991E+03  0.00000000000E+00 0. -1.
          2   -1    0    0  503    0 -0.00000000000E+00 -0.00000000000E+00 -0.32047645858E+04  0.32047645858E+04  0.00000000000E+00 0. -1.
         24    2    1    2    0    0 -0.49299707145E+02 -0.16700240448E+02 -0.10932922624E+04  0.10975017054E+04  0.80701072647E+02 0.  0.
         25    2    1    2    0    0  0.73528969226E+02  0.35429952708E+02  0.75705474074E+02  0.16738780672E+03  0.12500227266E+03 0.  0.
         24    2    1    2    0    0  0.11579433079E+02  0.15294915128E+03 -0.62906664435E+03  0.65289881173E+03  0.83812225716E+02 0.  0.
        -11    1    3    3    0    0 -0.10228371325E+02  0.26817018146E+02 -0.61144283215E+03  0.61211609113E+03  0.00000000000E+00 0.  1.
         12    1    3    3    0    0 -0.39071335820E+02 -0.43517258594E+02 -0.48184943028E+03  0.48538561427E+03  0.00000000000E+00 0. -1.
        -11    1    5    5    0    0  0.13528696755E+01  0.60240495835E+02 -0.10910654924E+03  0.12463942667E+03  0.00000000000E+00 0.  1.
         12    1    5    5    0    0  0.10226563403E+02  0.92708655445E+02 -0.51996009512E+03  0.52825938506E+03  0.00000000000E+00 0. -1.
          5    1    4    4  501    0  0.10693549216E+03  0.36622126276E+02  0.70320206086E+02  0.13320435804E+03  0.47000000000E+01 0.  1.
         -5    1    4    4    0  501 -0.33406522935E+02 -0.11921735673E+01  0.53852679881E+01  0.34183448681E+02  0.47000000000E+01 0.  1.
          1    1    1    2  502    0  0.22454858749E+02 -0.19566688784E+02  0.13625743529E+03  0.13947460222E+03  0.00000000000E+00 0. -1.
          1    1    1    2  503    0 -0.58263553909E+02 -0.15211217476E+03 -0.14162669385E+04  0.14256033096E+04  0.00000000000E+00 0. -1.
<mgrwt>
<rscale>  0 0.61379802E+02</rscale>
<asrwt>0</asrwt>
<pdfrwt beam="1">  1        2 0.40897302E-01 0.29783821E+02</pdfrwt>
<pdfrwt beam="2">  1        2 0.47128890E+00 0.12649418E+03</pdfrwt>
<totfact> 0.40506819E+01</totfact>
</mgrwt>
</event>
<event>
13    1  0.2101801E-008  0.3483237E+03  0.7546771E-02  0.1232656E+00
          2   -1    0    0  502    0  0.00000000000E+00  0.00000000000E+00  0.21777280396E+04  0.21777280396E+04  0.00000000000E+00 0. -1.
          2   -1    0    0  503    0 -0.00000000000E+00 -0.00000000000E+00 -0.38525025504E+04  0.38525025504E+04  0.00000000000E+00 0. -1.
         24    2    1    2    0    0  0.28636278955E+03 -0.14559866727E+02 -0.52724277007E+03  0.60536054407E+03  0.79125297928E+02 0.  0.
         25    2    1    2    0    0 -0.80205079449E+03  0.91419539398E+02 -0.93852118854E+03  0.12442228292E+04  0.12500167284E+03 0.  0.
         24    2    1    2    0    0  0.12654692447E+03 -0.97408337360E+02 -0.73410198436E+02  0.19363730387E+03  0.81264013785E+02 0.  0.
        -11    1    5    5    0    0  0.95605515191E+02 -0.22619217178E+02 -0.39977325373E+02  0.10606710171E+03  0.00000000000E+00 0.  1.
         12    1    5    5    0    0  0.30941409277E+02 -0.74789120182E+02 -0.33432873063E+02  0.87570202163E+02  0.00000000000E+00 0. -1.
        -13    1    3    3    0    0  0.71874675130E+02  0.30734032506E+02 -0.13321925521E+03  0.15446009076E+03  0.00000000000E+00 0.  1.
         14    1    3    3    0    0  0.21448811442E+03 -0.45293899233E+02 -0.39402351486E+03  0.45090045331E+03  0.00000000000E+00 0. -1.
          5    1    4    4  501    0 -0.71385129593E+03  0.91267026149E+02 -0.77002352724E+03  0.10539789681E+04  0.47000000000E+01 0.  1.
         -5    1    4    4    0  501 -0.88199498562E+02  0.15251324858E+00 -0.16849766130E+03  0.19024386106E+03  0.47000000000E+01 0.  1.
          1    1    1    2  502    0  0.34674160511E+03  0.27546548713E+01  0.19098347728E+04  0.19410580074E+04  0.00000000000E+00 0. -1.
          1    1    1    2  503    0  0.42399475370E+02  0.17794009818E+02 -0.20454351266E+04  0.20459519054E+04  0.00000000000E+00 0. -1.
<mgrwt>
<rscale>  0 0.12655675E+03</rscale>
<asrwt>0</asrwt>
<pdfrwt beam="1">  1        2 0.32025413E+00 0.34832367E+03</pdfrwt>
<pdfrwt beam="2">  1        2 0.56654449E+00 0.45981978E+02</pdfrwt>
<totfact> 0.11152767E+00</totfact>
</mgrwt>
</event>
<event>
13    1  0.2101801E-008  0.5417242E+02  0.7546771E-02  0.1467361E+00
          2   -1    0    0  502    0  0.00000000000E+00  0.00000000000E+00  0.31279450389E+04  0.31279450389E+04  0.00000000000E+00 0. -1.
          4   -1    0    0  503    0 -0.00000000000E+00 -0.00000000000E+00 -0.27607307095E+04  0.27607307095E+04  0.00000000000E+00 0. -1.
         24    2    1    2    0    0  0.79426566509E+02  0.45911875108E+03  0.18703372172E+04  0.19290074505E+04  0.76222247066E+02 0.  0.
         25    2    1    2    0    0 -0.63529697935E+02 -0.25758612942E+03 -0.17563283820E+03  0.34184247918E+03  0.12499100019E+03 0.  0.
         24    2    1    2    0    0 -0.22896955195E+02 -0.29415240761E+03  0.54885471226E+03  0.62834445761E+03  0.80779655702E+02 0.  0.
        -11    1    5    5    0    0 -0.29377212395E+02 -0.34781343633E+02  0.10050558282E+03  0.11033646111E+03  0.00000000000E+00 0.  1.
         12    1    5    5    0    0  0.64802571996E+01 -0.25937106397E+03  0.44834912944E+03  0.51800799650E+03  0.00000000000E+00 0. -1.
        -11    1    3    3    0    0  0.96399691070E+01  0.15420705870E+03  0.49523280731E+03  0.51877575058E+03  0.00000000000E+00 0.  1.
         12    1    3    3    0    0  0.69786597402E+02  0.30491169238E+03  0.13751044099E+04  0.14102316999E+04  0.00000000000E+00 0. -1.
          5    1    4    4  501    0  0.67066648255E+01 -0.10949156008E+03 -0.13290701190E+03  0.17239415563E+03  0.47000000000E+01 0.  1.
         -5    1    4    4    0  501 -0.70236362760E+02 -0.14809456934E+03 -0.42725826295E+02  0.16944832355E+03  0.47000000000E+01 0.  1.
          1    1    1    2  502    0  0.80469143182E+01  0.38461975537E+02  0.55557276025E+03  0.55696065241E+03  0.00000000000E+00 0. -1.
          3    1    1    2  503    0 -0.10468276970E+01  0.54157810408E+02 -0.24319175221E+04  0.24325207088E+04  0.00000000000E+00 0. -1.
<mgrwt>
<rscale>  0 0.46137739E+02</rscale>
<asrwt>0</asrwt>
<pdfrwt beam="1">  1        2 0.45999192E+00 0.39294737E+02</pdfrwt>
<pdfrwt beam="2">  1        4 0.40598981E+00 0.54172418E+02</pdfrwt>
<totfact> 0.14643912E-02</totfact>
</mgrwt>
</event>
<event>
13    1  0.2101801E-008  0.1903635E+03  0.7546771E-02  0.1241528E+00
          2   -1    0    0  503    0  0.00000000000E+00  0.00000000000E+00  0.43256731967E+04  0.43256731967E+04  0.00000000000E+00 0. -1.
          2   -1    0    0  502    0 -0.00000000000E+00 -0.00000000000E+00 -0.25757047789E+04  0.25757047789E+04  0.00000000000E+00 0. -1.
         24    2    1    2    0    0 -0.11033718785E+03  0.61746841930E+02 -0.78493784935E+03  0.79916893498E+03  0.80972784248E+02 0.  0.
         25    2    1    2    0    0 -0.23164392281E+03  0.22702632863E+03  0.16113563796E+04  0.16484218366E+04  0.12500123458E+03 0.  0.
         24    2    1    2    0    0  0.64317476271E+02 -0.26893500218E+03 -0.12798757054E+03  0.31471547358E+03  0.78754288416E+02 0.  0.
        -13    1    5    5    0    0  0.21217437799E+02 -0.78817768877E+01 -0.14038757566E+02  0.26634353525E+02  0.00000000000E+00 0.  1.
         14    1    5    5    0    0  0.43100038472E+02 -0.26105322529E+03 -0.11394881297E+03  0.28808112005E+03  0.00000000000E+00 0. -1.
        -13    1    3    3    0    0 -0.15115230920E+01  0.36425646673E+02 -0.25388387989E+03  0.25648808336E+03  0.00000000000E+00 0.  1.
         14    1    3    3    0    0 -0.10882566476E+03  0.25321195257E+02 -0.53105396946E+03  0.54268085162E+03  0.00000000000E+00 0. -1.
          5    1    4    4  501    0 -0.90921701100E+02  0.24359502248E+02  0.60221586783E+03  0.60954588223E+03  0.47000000000E+01 0. -1.
         -5    1    4    4    0  501 -0.14072222171E+03  0.20266682638E+03  0.10091405117E+04  0.10388759544E+04  0.47000000000E+01 0. -1.
          1    1    1    2  502    0  0.33650271401E+03 -0.69281690758E+02 -0.15240722233E+04  0.15623156438E+04  0.00000000000E+00 0. -1.
          1    1    1    2  503    0 -0.58839079612E+02  0.49443522377E+02  0.25756096814E+04  0.25767560867E+04  0.00000000000E+00 0. -1.
<mgrwt>
<rscale>  0 0.12095619E+03</rscale>
<asrwt>0</asrwt>
<pdfrwt beam="1">  1        2 0.63612841E+00 0.76855053E+02</pdfrwt>
<pdfrwt beam="2">  1        2 0.37878011E+00 0.19036353E+03</pdfrwt>
<totfact> 0.31760767E-01</totfact>
</mgrwt>
</event>
<event>
13    1  0.2101801E-008  0.4672501E+02  0.7546771E-02  0.1525809E+00
          2   -1    0    0  503    0  0.00000000000E+00  0.00000000000E+00  0.10878883124E+04  0.10878883124E+04  0.00000000000E+00 0. -1.
          2   -1    0    0  502    0 -0.00000000000E+00 -0.00000000000E+00 -0.29903585213E+04  0.29903585213E+04  0.00000000000E+00 0. -1.
         24    2    1    2    0    0  0.20839672609E+03 -0.28874031845E+03 -0.21066895254E+03  0.42155846467E+03  0.80808196492E+02 0.  0.
         25    2    1    2    0    0 -0.30333231318E+03 -0.37118446180E+03  0.56296229877E+03  0.74989400888E+03  0.12500431117E+03 0.  0.
         24    2    1    2    0    0  0.57927988603E+02  0.63198272233E+03 -0.98171621721E+03  0.11736749968E+04  0.10482582615E+03 0.  0.
        -11    1    3    3    0    0  0.89223105217E+02 -0.63240856511E+02 -0.75586954423E+02  0.13294192761E+03  0.00000000000E+00 0.  1.
         12    1    3    3    0    0  0.11917362088E+03 -0.22549946194E+03 -0.13508199812E+03  0.28861653706E+03  0.00000000000E+00 0. -1.
        -13    1    5    5    0    0  0.47773014459E+02  0.20979249183E+03 -0.26003798772E+03  0.33751282286E+03  0.00000000000E+00 0.  1.
         14    1    5    5    0    0  0.10154974144E+02  0.42219023050E+03 -0.72167822949E+03  0.83616217395E+03  0.00000000000E+00 0. -1.
          5    1    4    4  501    0  0.93957614132E+00  0.74943534159E+01  0.55030261002E+01  0.10460470004E+02  0.47000000000E+01 0. -1.
         -5    1    4    4    0  501 -0.30427188933E+03 -0.37867881521E+03  0.55745927267E+03  0.73943353887E+03  0.47000000000E+01 0. -1.
          1    1    1    2  502    0  0.11934338723E+02  0.45179684245E+02 -0.15017121714E+04  0.15024390431E+04  0.00000000000E+00 0. -1.
          1    1    1    2  503    0  0.25073259764E+02 -0.17237626323E+02  0.22866483345E+03  0.23068032029E+03  0.00000000000E+00 0. -1.
<mgrwt>
<rscale>  0 0.37705479E+02</rscale>
<asrwt>0</asrwt>
<pdfrwt beam="1">  1        2 0.15998358E+00 0.30427029E+02</pdfrwt>
<pdfrwt beam="2">  1        2 0.43975861E+00 0.46725007E+02</pdfrwt>
<totfact> 0.14439647E+01</totfact>
</mgrwt>
</event>
<event>
13    1  0.2101801E-008  0.1073354E+03  0.7546771E-02  0.1299249E+00
          2   -1    0    0  503    0  0.00000000000E+00  0.00000000000E+00  0.24743316482E+04  0.24743316482E+04  0.00000000000E+00 0. -1.
          2   -1    0    0  502    0 -0.00000000000E+00 -0.00000000000E+00 -0.22069048511E+04  0.22069048511E+04  0.00000000000E+00 0. -1.
         24    2    1    2    0    0  0.62928714660E+02 -0.33299490412E+03 -0.82806155769E+03  0.89840025727E+03  0.81187743213E+02 0.  0.
         25    2    1    2    0    0 -0.94770266338E+01 -0.41927586244E+02  0.78115638018E+02  0.15353723480E+03  0.12499557210E+03 0.  0.
         24    2    1    2    0    0  0.36920058668E+02  0.28152493614E+03 -0.25284761263E+03  0.38507138027E+03  0.61062855180E+02 0.  0.
        -11    1    5    5    0    0  0.48538980622E+02  0.23851609648E+03 -0.23051781787E+03  0.33523786373E+03  0.00000000000E+00 0.  1.
         12    1    5    5    0    0 -0.11618921954E+02  0.43008839660E+02 -0.22329794762E+02  0.49833516536E+02  0.00000000000E+00 0. -1.
        -13    1    3    3    0    0  0.70053935602E+02 -0.15482748582E+03 -0.42039955288E+03  0.45344777905E+03  0.00000000000E+00 0.  1.
         14    1    3    3    0    0 -0.71252209415E+01 -0.17816741830E+03 -0.40766200481E+03  0.44495247823E+03  0.00000000000E+00 0. -1.
          5    1    4    4  501    0 -0.29604722213E+02 -0.56650291338E+02  0.10083257355E+03  0.11947800206E+03  0.47000000000E+01 0. -1.
         -5    1    4    4    0  501  0.20127695579E+02  0.14722705095E+02 -0.22716935536E+02  0.34059232739E+02  0.47000000000E+01 0. -1.
          1    1    1    2  502    0 -0.10602473535E+03  0.16976182104E+02 -0.98340649064E+03  0.98925111124E+03  0.00000000000E+00 0. -1.
          1    1    1    2  503    0  0.15652988657E+02  0.76421372116E+02  0.22536268201E+04  0.22549765157E+04  0.00000000000E+00 0. -1.
<mgrwt>
<rscale>  0 0.91504181E+02</rscale>
<asrwt>0</asrwt>
<pdfrwt beam="1">  1        2 0.36387230E+00 0.78007962E+02</pdfrwt>
<pdfrwt beam="2">  1        2 0.32454483E+00 0.10733539E+03</pdfrwt>
<totfact> 0.62511367E+00</totfact>
</mgrwt>
</event>
<event>
13    1  0.2101801E-008  0.1712807E+03  0.7546771E-02  0.1388965E+00
          2   -1    0    0  503    0  0.00000000000E+00  0.00000000000E+00  0.13305059507E+04  0.13305059507E+04  0.00000000000E+00 0. -1.
          2   -1    0    0  502    0 -0.00000000000E+00 -0.00000000000E+00 -0.29933062673E+04  0.29933062673E+04  0.00000000000E+00 0. -1.
         24    2    1    2    0    0  0.92198797020E+02  0.60426874888E+02 -0.98296276538E+03  0.99281124597E+03  0.85477170191E+02 0.  0.
         25    2    1    2    0    0 -0.12609823723E+03 -0.77973679134E+01 -0.28184471523E+02  0.17995679823E+03  0.12501408087E+03 0.  0.
         24    2    1    2    0    0  0.86735215244E+02 -0.19191796717E+03  0.71065939718E+01  0.22546297800E+03  0.80171984429E+02 0.  0.
        -13    1    3    3    0    0 -0.11331259939E+02 -0.57606999024E+01 -0.42661478857E+02  0.44514996276E+02  0.00000000000E+00 0.  1.
         14    1    3    3    0    0  0.10353005696E+03  0.66187574790E+02 -0.94030128652E+03  0.94829624970E+03  0.00000000000E+00 0. -1.
        -13    1    5    5    0    0  0.35935098770E+02 -0.16173259804E+03 -0.19088148906E+01  0.16568768260E+03  0.00000000000E+00 0.  1.
         14    1    5    5    0    0  0.50800116475E+02 -0.30185369127E+02  0.90154088625E+01  0.59775295400E+02  0.00000000000E+00 0. -1.
          5    1    4    4  501    0 -0.12115457769E+03  0.41361146177E+02 -0.20345685888E+02  0.12971203893E+03  0.47000000000E+01 0. -1.
         -5    1    4    4    0  501 -0.49436595342E+01 -0.49158514090E+02 -0.78387856348E+01  0.50244759303E+02  0.47000000000E+01 0. -1.
          1    1    1    2  502    0 -0.38535517651E+02  0.15673998416E+03 -0.17884233636E+04  0.17956922165E+04  0.00000000000E+00 0. -1.
          1    1    1    2  503    0 -0.14300257385E+02 -0.17451523971E+02  0.11296636899E+04  0.11298889793E+04  0.00000000000E+00 0. -1.
<mgrwt>
<rscale>  0 0.62164863E+02</rscale>
<asrwt>0</asrwt>
<pdfrwt beam="1">  1        2 0.19566264E+00 0.22562204E+02</pdfrwt>
<pdfrwt beam="2">  1        2 0.44019209E+00 0.17128071E+03</pdfrwt>
<totfact> 0.91048893E+00</totfact>
</mgrwt>
</event>
<event>
13    1  0.2101801E-008  0.7836154E+02  0.7546771E-02  0.1434367E+00
         -3   -1    0    0    0  501 -0.00000000000E+00  0.00000000000E+00  0.75627273491E+03  0.75627273491E+03  0.00000000000E+00 0.  1.
          2   -1    0    0  503    0  0.00000000000E+00 -0.00000000000E+00 -0.91981256953E+03  0.91981256953E+03  0.00000000000E+00 0. -1.
         24    2    1    2    0    0 -0.44702025937E+02 -0.27663403097E+02  0.10877532817E+03  0.14496472946E+03  0.80119696549E+02 0.  0.
         25    2    1    2    0    0 -0.60143104983E+02  0.36971168520E+01 -0.28070768365E+03  0.31313350310E+03  0.12499970141E+03 0.  0.
         24    2    1    2    0    0  0.43727955743E+02 -0.22150425157E+02  0.11910398818E+02  0.96498789792E+02  0.82264107503E+02 0.  0.
        -11    1    5    5    0    0 -0.37551638460E+01 -0.37522132208E+02 -0.14049498070E+02  0.40241770053E+02  0.00000000000E+00 0.  1.
         12    1    5    5    0    0  0.47483119589E+02  0.15371707051E+02  0.25959896888E+02  0.56257019740E+02  0.00000000000E+00 0. -1.
        -11    1    3    3    0    0  0.10348459997E+00  0.25935373492E+02  0.31110801487E+02  0.40503534122E+02  0.00000000000E+00 0.  1.
         12    1    3    3    0    0 -0.44805510537E+02 -0.53598776589E+02  0.77664526680E+02  0.10446119533E+03  0.00000000000E+00 0. -1.
          5    1    4    4  502    0 -0.69572635141E+02 -0.60404516193E+01 -0.60665566892E+02  0.92624184869E+02  0.47000000000E+01 0.  1.
         -5    1    4    4    0  502  0.94295301579E+01  0.97375684714E+01 -0.22004211676E+03  0.22050931823E+03  0.47000000000E+01 0.  1.
          1    1    1    2  503    0 -0.15808823015E+02  0.30811789719E+02 -0.55921345852E+03  0.56028472892E+03  0.00000000000E+00 0. -1.
         -4    1    1    2    0  501  0.76925998193E+02  0.15304921683E+02  0.55569558057E+03  0.56120355317E+03  0.00000000000E+00 0.  1.
<mgrwt>
<rscale>  0 0.52093328E+02</rscale>
<asrwt>0</asrwt>
<pdfrwt beam="2">  1        2 0.13526655E+00 0.34630698E+02</pdfrwt>
<pdfrwt beam="1">  1       -3 0.11121658E+00 0.78361538E+02</pdfrwt>
<totfact> 0.14876638E+01</totfact>
</mgrwt>
</event>
<event>
13    1  0.2101801E-008  0.5438513E+02  0.7546771E-02  0.1506465E+00
          2   -1    0    0  503    0  0.00000000000E+00  0.00000000000E+00  0.18842661355E+04  0.18842661355E+04  0.00000000000E+00 0. -1.
          2   -1    0    0  502    0 -0.00000000000E+00 -0.00000000000E+00 -0.12934082075E+04  0.12934082075E+04  0.00000000000E+00 0. -1.
         24    2    1    2    0    0 -0.13081166907E+03  0.18491217963E+03  0.18812320297E+03  0.30541302215E+03  0.81133024467E+02 0.  0.
         25    2    1    2    0    0  0.20434960223E+03 -0.23939078907E+03  0.13123761054E+03  0.36320243970E+03  0.12500396779E+03 0.  0.
         24    2    1    2    0    0 -0.85568830995E+02  0.32720420410E+02 -0.11354668278E+02  0.12291435645E+03  0.81156390871E+02 0.  0.
        -13    1    5    5    0    0 -0.28637058940E+02  0.51760540767E+02  0.83303211779E+01  0.59738002780E+02  0.00000000000E+00 0.  1.
         14    1    5    5    0    0 -0.56931772056E+02 -0.19040120358E+02 -0.19684989456E+02  0.63176353666E+02  0.00000000000E+00 0. -1.
        -13    1    3    3    0    0 -0.17726534055E+02 -0.56204809548E+01  0.19787110697E+02  0.27154181364E+02  0.00000000000E+00 0.  1.
         14    1    3    3    0    0 -0.11308513502E+03  0.19053266059E+03  0.16833609227E+03  0.27825884078E+03  0.00000000000E+00 0. -1.
          5    1    4    4  501    0 -0.97954738844E+01  0.26855929114E+01  0.17041149180E+02  0.20387606120E+02  0.47000000000E+01 0. -1.
         -5    1    4    4    0  501  0.21414507611E+03 -0.24207638198E+03  0.11419646136E+03  0.34281483358E+03  0.47000000000E+01 0. -1.
          1    1    1    2  502    0  0.30789577004E+02  0.44876215751E+02 -0.10507760262E+04  0.10521844563E+04  0.00000000000E+00 0. -1.
          1    1    1    2  503    0 -0.18758679160E+02 -0.23118026721E+02  0.13336278090E+04  0.13339600684E+04  0.00000000000E+00 0. -1.
<mgrwt>
<rscale>  0 0.40238250E+02</rscale>
<asrwt>0</asrwt>
<pdfrwt beam="1">  1        2 0.27709796E+00 0.29771315E+02</pdfrwt>
<pdfrwt beam="2">  1        2 0.19020709E+00 0.54385127E+02</pdfrwt>
<totfact> 0.39084027E+01</totfact>
</mgrwt>
</event>
<event>
13    1  0.2101801E-008  0.9330748E+02  0.7546771E-02  0.1361228E+00
         -3   -1    0    0    0  501 -0.00000000000E+00  0.00000000000E+00  0.78121160187E+03  0.78121160187E+03  0.00000000000E+00 0.  1.
          2   -1    0    0  503    0  0.00000000000E+00 -0.00000000000E+00 -0.24529880499E+04  0.24529880499E+04  0.00000000000E+00 0. -1.
         24    2    1    2    0    0 -0.63051678330E+02 -0.17400015817E+03  0.64537493251E+01  0.20563894461E+03  0.89410041251E+02 0.  0.
         25    2    1    2    0    0  0.24959478087E+03  0.48249942812E+02 -0.71693967998E+03  0.77087912960E+03  0.12500606426E+03 0.  0.
         24    2    1    2    0    0 -0.43241956354E+02  0.14175467901E+03 -0.22202170494E+03  0.27887305475E+03  0.80698744664E+02 0.  0.
        -11    1    5    5    0    0 -0.17929702350E+02  0.14230173326E+03 -0.18946758080E+03  0.23763253500E+03  0.00000000000E+00 0.  1.
         12    1    5    5    0    0 -0.25312254004E+02 -0.54705424519E+00 -0.32554124136E+02  0.41240519751E+02  0.00000000000E+00 0. -1.
        -13    1    3    3    0    0 -0.75842318425E+02 -0.81575761670E+02  0.12799287287E+02  0.11211816941E+03  0.00000000000E+00 0.  1.
         14    1    3    3    0    0  0.12790640095E+02 -0.92424396503E+02 -0.63455379615E+01  0.93520775205E+02  0.00000000000E+00 0. -1.
          5    1    4    4  502    0  0.18679265057E+03 -0.61767422711E+01 -0.37584608190E+03  0.41977614716E+03  0.47000000000E+01 0. -1.
         -5    1    4    4    0  502  0.62802130297E+02  0.54426685084E+02 -0.34109359809E+03  0.35110298244E+03  0.47000000000E+01 0. -1.
          1    1    1    2  503    0 -0.92732569825E+02 -0.38163072059E+01 -0.13563586084E+04  0.13595302749E+04  0.00000000000E+00 0. -1.
         -4    1    1    2    0  501 -0.50568576358E+02 -0.12188156449E+02  0.61708979597E+03  0.61927824794E+03  0.00000000000E+00 0.  1.
<mgrwt>
<rscale>  0 0.69667370E+02</rscale>
<asrwt>0</asrwt>
<pdfrwt beam="2">  1        2 0.36073353E+00 0.93307476E+02</pdfrwt>
<pdfrwt beam="1">  1       -3 0.11488406E+00 0.52016652E+02</pdfrwt>
<totfact> 0.22243731E+00</totfact>
</mgrwt>
</event>
<event>
13    1  0.2101801E-008  0.8762944E+02  0.7546771E-02  0.1375046E+00
          2   -1    0    0  502    0  0.00000000000E+00  0.00000000000E+00  0.97493762313E+03  0.97493762313E+03  0.00000000000E+00 0. -1.
          2   -1    0    0  503    0 -0.00000000000E+00 -0.00000000000E+00 -0.33934120503E+04  0.33934120503E+04  0.00000000000E+00 0. -1.
         24    2    1    2    0    0 -0.57144424566E+01  0.28920523328E+02 -0.10418518101E+04  0.10453422939E+04  0.80101595425E+02 0.  0.
         25    2    1    2    0    0  0.20162995921E+03  0.16474150646E+03  0.50496556272E+03  0.58173005269E+03  0.12500092104E+03 0.  0.
         24    2    1    2    0    0 -0.16917880726E+03 -0.13996666957E+03 -0.82084900896E+02  0.24752322213E+03  0.79483816719E+02 0.  0.
        -11    1    3    3    0    0 -0.14394834619E+02 -0.22379882547E+02 -0.18400487928E+03  0.18591897699E+03  0.00000000000E+00 0.  1.
         12    1    3    3    0    0  0.86803921625E+01  0.51300405875E+02 -0.85784693085E+03  0.85942331690E+03  0.00000000000E+00 0. -1.
        -11    1    5    5    0    0 -0.88000057069E+02 -0.38674557840E+02 -0.43549797193E+01  0.96222124881E+02  0.00000000000E+00 0.  1.
         12    1    5    5    0    0 -0.81178750190E+02 -0.10129211173E+03 -0.77729921176E+02  0.15130109725E+03  0.00000000000E+00 0. -1.
          5    1    4    4  501    0  0.13316318770E+03  0.32770879788E+02  0.28329766920E+03  0.31477932666E+03  0.47000000000E+01 0. -1.
         -5    1    4    4    0  501  0.68466771507E+02  0.13197062668E+03  0.22166789352E+03  0.26695072602E+03  0.47000000000E+01 0. -1.
          1    1    1    2  502    0  0.24872383146E+02  0.42664002553E+02  0.34396917266E+03  0.34749625077E+03  0.00000000000E+00 0. -1.
          1    1    1    2  503    0 -0.51609092637E+02 -0.96359362773E+02 -0.21434724515E+04  0.21462578539E+04  0.00000000000E+00 0. -1.
<mgrwt>
<rscale>  0 0.65784172E+02</rscale>
<asrwt>0</asrwt>
<pdfrwt beam="1">  1        2 0.14337318E+00 0.49384740E+02</pdfrwt>
<pdfrwt beam="2">  1        2 0.49903118E+00 0.87629443E+02</pdfrwt>
<totfact> 0.87743205E+00</totfact>
</mgrwt>
</event>
<event>
13    1  0.2101801E-008  0.1234683E+03  0.7546771E-02  0.1321031E+00
          4   -1    0    0  503    0  0.00000000000E+00  0.00000000000E+00  0.35086308326E+03  0.35086308326E+03  0.00000000000E+00 0. -1.
         -3   -1    0    0    0  501 -0.00000000000E+00 -0.00000000000E+00 -0.15499213500E+04  0.15499213500E+04  0.00000000000E+00 0.  1.
         24    2    1    2    0    0  0.70637492444E+02 -0.56939292628E+01 -0.33003633560E+03  0.34719832403E+03  0.81244182703E+02 0.  0.
         25    2    1    2    0    0 -0.16726479504E+03  0.13333987420E+03 -0.29865185339E+03  0.38803991163E+03  0.12500003909E+03 0.  0.
         24    2    1    2    0    0 -0.35388646056E+01  0.16967754071E+02 -0.10752223339E+03  0.13445949749E+03  0.78853646398E+02 0.  0.
        -11    1    5    5    0    0 -0.19491971323E+02  0.43038225937E+02 -0.46920286322E+02  0.66586328225E+02  0.00000000000E+00 0.  1.
         12    1    5    5    0    0  0.15953106717E+02 -0.26070471866E+02 -0.60601947067E+02  0.67873169262E+02  0.00000000000E+00 0. -1.
        -13    1    3    3    0    0  0.40117119216E+02 -0.35068494480E+02 -0.25954844604E+03  0.26496146588E+03  0.00000000000E+00 0.  1.
         14    1    3    3    0    0  0.30520373228E+02  0.29374565217E+02 -0.70487889559E+02  0.82236858149E+02  0.00000000000E+00 0. -1.
          5    1    4    4  502    0 -0.10733850651E+03  0.90589222902E+02 -0.90371811588E+02  0.16708416028E+03  0.47000000000E+01 0. -1.
         -5    1    4    4    0  502 -0.59926288535E+02  0.42750651297E+02 -0.20828004180E+03  0.22095575136E+03  0.47000000000E+01 0. -1.
          3    1    1    2  503    0  0.65157048339E+02 -0.10134946236E+03  0.27024324138E+03  0.29588606588E+03  0.00000000000E+00 0. -1.
         -4    1    1    2    0  501  0.35009118867E+02 -0.43264236645E+02 -0.73309108570E+03  0.73520063419E+03  0.00000000000E+00 0.  1.
<mgrwt>
<rscale>  0 0.82894966E+02</rscale>
<asrwt>0</asrwt>
<pdfrwt beam="1">  1        4 0.51597512E-01 0.12346828E+03</pdfrwt>
<pdfrwt beam="2">  1       -3 0.22792961E+00 0.55654583E+02</pdfrwt>
<totfact> 0.85945304E-01</totfact>
</mgrwt>
</event>
<event>
13    1  0.2101801E-008  0.9077122E+02  0.7546771E-02  0.1323528E+00
          2   -1    0    0  503    0  0.00000000000E+00  0.00000000000E+00  0.20864681021E+04  0.20864681021E+04  0.00000000000E+00 0. -1.
          2   -1    0    0  502    0 -0.00000000000E+00 -0.00000000000E+00 -0.49090740447E+03  0.49090740447E+03  0.00000000000E+00 0. -1.
         24    2    1    2    0    0  0.67026384141E+01  0.10697576637E+03  0.71167838064E+02  0.15240859160E+03  0.81699312519E+02 0.  0.
         25    2    1    2    0    0  0.97247075349E+02 -0.15412907900E+03  0.65388338453E+03  0.69022006976E+03  0.12500998954E+03 0.  0.
         24    2    1    2    0    0 -0.35591892659E+02  0.54246519623E+02 -0.41193735811E+02  0.11174704663E+03  0.81123429698E+02 0.  0.
        -13    1    5    5    0    0 -0.36061529430E+02 -0.10692868795E+02 -0.66723981356E+01  0.38200683826E+02  0.00000000000E+00 0.  1.
         14    1    5    5    0    0  0.46963677054E+00  0.64939388418E+02 -0.34521337676E+02  0.73546362804E+02  0.00000000000E+00 0. -1.
        -13    1    3    3    0    0 -0.35218386419E+01 -0.13347666292E+02  0.47984507661E+01  0.14614673195E+02  0.00000000000E+00 0.  1.
         14    1    3    3    0    0  0.10224477056E+02  0.12032343266E+03  0.66369387298E+02  0.13779391840E+03  0.00000000000E+00 0. -1.
          5    1    4    4  501    0 -0.48978583022E+00 -0.10814985824E+03  0.39742321082E+03  0.41190281648E+03  0.47000000000E+01 0. -1.
         -5    1    4    4    0  501  0.97736861179E+02 -0.45979220751E+02  0.25646017371E+03  0.27831725328E+03  0.47000000000E+01 0. -1.
          1    1    1    2  502    0 -0.62105951596E+02  0.66680585842E+02 -0.34870722956E+03  0.36041667789E+03  0.00000000000E+00 0. -1.
          1    1    1    2  503    0 -0.62518695083E+01 -0.73773792839E+02  0.12604104404E+04  0.12625831207E+04  0.00000000000E+00 0. -1.
<mgrwt>
<rscale>  0 0.81978897E+02</rscale>
<asrwt>0</asrwt>
<pdfrwt beam="1">  1        2 0.30683354E+00 0.74038222E+02</pdfrwt>
<pdfrwt beam="2">  1        2 0.72192267E-01 0.90771217E+02</pdfrwt>
<totfact> 0.90615955E+01</totfact>
</mgrwt>
</event>
<event>
13    1  0.2101801E-008  0.8247735E+02  0.7546771E-02  0.1459722E+00
          2   -1    0    0  503    0  0.00000000000E+00  0.00000000000E+00  0.11969360987E+04  0.11969360987E+04  0.00000000000E+00 0. -1.
          2   -1    0    0  502    0 -0.00000000000E+00 -0.00000000000E+00 -0.42892504093E+04  0.42892504093E+04  0.00000000000E+00 0. -1.
         24    2    1    2    0    0 -0.19603641626E+03  0.52877575631E+01 -0.33482511420E+04  0.33549720699E+04  0.81201249083E+02 0.  0.
         25    2    1    2    0    0  0.11634065868E+03  0.13256420759E+03  0.55869911298E+01  0.21625242574E+03  0.12500191668E+03 0.  0.
         24    2    1    2    0    0  0.42327398536E+02 -0.45849911054E+02 -0.32849475125E+02  0.10624984495E+03  0.79474011642E+02 0.  0.
        -11    1    5    5    0    0  0.58740687601E+02 -0.56298283422E+02 -0.29261662190E+02  0.86465079484E+02  0.00000000000E+00 0.  1.
         12    1    5    5    0    0 -0.16413289065E+02  0.10448372368E+02 -0.35878129345E+01  0.19784765471E+02  0.00000000000E+00 0. -1.
        -13    1    3    3    0    0 -0.62459610149E+02 -0.23339071203E+02 -0.69036189356E+03  0.69357440785E+03  0.00000000000E+00 0.  1.
         14    1    3    3    0    0 -0.13357680611E+03  0.28626828766E+02 -0.26578892484E+04  0.26613976620E+04  0.00000000000E+00 0. -1.
          5    1    4    4  501    0  0.24741368473E+02  0.66957858844E+02  0.57812630085E+02  0.91977607994E+02  0.47000000000E+01 0.  1.
         -5    1    4    4    0  501  0.91599290205E+02  0.65606348744E+02 -0.52225638955E+02  0.12427481775E+03  0.47000000000E+01 0.  1.
          1    1    1    2  502    0 -0.10787255334E+02 -0.25050703535E+02 -0.76088605127E+03  0.76137473405E+03  0.00000000000E+00 0. -1.
          1    1    1    2  503    0  0.48155614376E+02 -0.66951350562E+02  0.10440853667E+04  0.10473374334E+04  0.00000000000E+00 0. -1.
<mgrwt>
<rscale>  0 0.47429264E+02</rscale>
<asrwt>0</asrwt>
<pdfrwt beam="1">  1        2 0.17602001E+00 0.82477353E+02</pdfrwt>
<pdfrwt beam="2">  1        2 0.63077213E+00 0.27274578E+02</pdfrwt>
<totfact> 0.22976624E+00</totfact>
</mgrwt>
</event>
<event>
13    1  0.2101801E-008  0.5525472E+02  0.7546771E-02  0.1432416E+00
          2   -1    0    0  503    0  0.00000000000E+00  0.00000000000E+00  0.14457167332E+04  0.14457167332E+04  0.00000000000E+00 0. -1.
         -1   -1    0    0    0  501 -0.00000000000E+00 -0.00000000000E+00 -0.17988818023E+04  0.17988818023E+04  0.00000000000E+00 0.  1.
         24    2    1    2    0    0 -0.36574619383E+02 -0.19801007674E+03 -0.12751589238E+04  0.12935124557E+04  0.81231144726E+02 0.  0.
         25    2    1    2    0    0  0.92181096009E+02  0.15591583239E+03  0.18242914913E+03  0.28585380441E+03  0.12499960717E+03 0.  0.
         24    2    1    2    0    0 -0.49324389169E+02  0.53795968858E+02  0.18972680159E+02  0.11034277135E+03  0.80552237485E+02 0.  0.
        -11    1    5    5    0    0  0.42484893739E+01  0.97952564224E+01 -0.25727543339E+02  0.27855038981E+02  0.00000000000E+00 0.  1.
         12    1    5    5    0    0 -0.53572878543E+02  0.44000712436E+02  0.44700223498E+02  0.82487732367E+02  0.00000000000E+00 0. -1.
        -11    1    3    3    0    0 -0.61552451331E+02 -0.14377521388E+03 -0.97622322179E+03  0.98867173275E+03  0.00000000000E+00 0.  1.
         12    1    3    3    0    0  0.24977831948E+02 -0.54234862857E+02 -0.29893570202E+03  0.30484072297E+03  0.00000000000E+00 0. -1.
          5    1    4    4  502    0 -0.28714925212E+02  0.33785400147E+02  0.18378338121E+02  0.48227103429E+02  0.47000000000E+01 0.  1.
         -5    1    4    4    0  502  0.12089602122E+03  0.12213043224E+03  0.16405081101E+03  0.23762670098E+03  0.47000000000E+01 0.  1.
          1    1    1    2  503    0 -0.34029340944E+02  0.36415961496E+02  0.11353426102E+04  0.11364360786E+04  0.00000000000E+00 0. -1.
         -2    1    1    2    0  501  0.27747253487E+02 -0.48117686007E+02 -0.41475058466E+03  0.41845342543E+03  0.00000000000E+00 0.  1.
<mgrwt>
<rscale>  0 0.52478059E+02</rscale>
<asrwt>0</asrwt>
<pdfrwt beam="1">  1        2 0.21260540E+00 0.49840930E+02</pdfrwt>
<pdfrwt beam="2">  1       -1 0.26454144E+00 0.55254720E+02</pdfrwt>
<totfact> 0.15940407E+00</totfact>
</mgrwt>
</event>
<event>
13    1  0.2101801E-008  0.2243410E+03  0.7546771E-02  0.1174649E+00
         -1   -1    0    0    0  501 -0.00000000000E+00  0.00000000000E+00  0.30294363994E+04  0.30294363994E+04  0.00000000000E+00 0.  1.
          2   -1    0    0  503    0  0.00000000000E+00 -0.00000000000E+00 -0.19698452598E+04  0.19698452598E+04  0.00000000000E+00 0. -1.
         24    2    1    2    0    0  0.85968318166E+02  0.60224959389E+02  0.52420418677E+03  0.54053104263E+03  0.79788352286E+02 0.  0.
         25    2    1    2    0    0 -0.24321622865E+03 -0.37371108526E+03 -0.29377885136E+02  0.46400498012E+03  0.12499380910E+03 0.  0.
         24    2    1    2    0    0 -0.16335745797E+02  0.29375946328E+01 -0.25652130772E+03  0.26930377895E+03  0.80286100833E+02 0.  0.
        -11    1    3    3    0    0  0.20523523670E+02  0.44574203615E+02  0.10427572085E+03  0.11524539301E+03  0.00000000000E+00 0.  1.
         12    1    3    3    0    0  0.65444794496E+02  0.15650755774E+02  0.41992846592E+03  0.42528564962E+03  0.00000000000E+00 0. -1.
        -13    1    5    5    0    0 -0.34899854815E+02 -0.23112879992E+02 -0.84114582006E+02  0.93954606026E+02  0.00000000000E+00 0.  1.
         14    1    5    5    0    0  0.18564109018E+02  0.26050474625E+02 -0.17240672572E+03  0.17534917292E+03  0.00000000000E+00 0. -1.
          5    1    4    4  502    0 -0.25435898354E+03 -0.37221927299E+03 -0.29537954022E+02  0.45181883584E+03  0.47000000000E+01 0.  1.
         -5    1    4    4    0  502  0.11142754887E+02 -0.14918122715E+01  0.16006888567E+00  0.12186144278E+02  0.47000000000E+01 0.  1.
          1    1    1    2  503    0 -0.87431701267E+02  0.19005822244E+03 -0.14353760654E+04  0.14505415814E+04  0.00000000000E+00 0. -1.
         -2    1    1    2    0  501  0.26101535755E+03  0.12049030880E+03  0.22566622111E+04  0.22749002761E+04  0.00000000000E+00 0.  1.
<mgrwt>
<rscale>  0 0.17310354E+03</rscale>
<asrwt>0</asrwt>
<pdfrwt beam="2">  1        2 0.28968313E+00 0.13356827E+03</pdfrwt>
<pdfrwt beam="1">  1       -1 0.44550535E+00 0.22434098E+03</pdfrwt>
<totfact> 0.47306991E-02</totfact>
</mgrwt>
</event>
<event>
13    1  0.2101801E-008  0.1289719E+03  0.7546771E-02  0.1288045E+00
          2   -1    0    0  502    0  0.00000000000E+00  0.00000000000E+00  0.56579380557E+04  0.56579380557E+04  0.00000000000E+00 0. -1.
          2   -1    0    0  503    0 -0.00000000000E+00 -0.00000000000E+00 -0.39590671026E+04  0.39590671026E+04  0.00000000000E+00 0. -1.
         24    2    1    2    0    0  0.67444077436E+02 -0.81460713871E+02 -0.17866322958E+03  0.22229873758E+03  0.79445752800E+02 0.  0.
         25    2    1    2    0    0  0.45955724748E+01 -0.85585518689E+02  0.19331154684E+04  0.19390468126E+04  0.12498450725E+03 0.  0.
         24    2    1    2    0    0  0.11817741305E+01  0.35073496195E+02 -0.71512255675E+02  0.11614793089E+03  0.84526873907E+02 0.  0.
        -13    1    5    5    0    0 -0.27773315530E+02 -0.76784577047E+01 -0.54734170422E+02  0.61855841923E+02  0.00000000000E+00 0.  1.
         14    1    5    5    0    0  0.28955089660E+02  0.42751953900E+02 -0.16778085253E+02  0.54292088965E+02  0.00000000000E+00 0. -1.
        -13    1    3    3    0    0  0.73388344936E+02 -0.92435744867E+02 -0.17056984395E+03  0.20742296827E+03  0.00000000000E+00 0.  1.
         14    1    3    3    0    0 -0.59442674999E+01  0.10975030996E+02 -0.80933856375E+01  0.14875769309E+02  0.00000000000E+00 0. -1.
          5    1    4    4  501    0 -0.46251232534E+02 -0.16225687321E+02  0.33362295291E+03  0.33723702962E+03  0.47000000000E+01 0. -1.
         -5    1    4    4    0  501  0.50846805009E+02 -0.69359831368E+02  0.15994925154E+04  0.16018097829E+04  0.47000000000E+01 0. -1.
          1    1    1    2  502    0 -0.39434140675E+01  0.15180327245E+03  0.36757989698E+04  0.36789343363E+04  0.00000000000E+00 0. -1.
          1    1    1    2  503    0 -0.69278009974E+02 -0.19830536089E+02 -0.36598679998E+04  0.36605773410E+04  0.00000000000E+00 0. -1.
<mgrwt>
<rscale>  0 0.96404128E+02</rscale>
<asrwt>0</asrwt>
<pdfrwt beam="1">  1        2 0.83204972E+00 0.12897186E+03</pdfrwt>
<pdfrwt beam="2">  1        2 0.58221575E+00 0.72060342E+02</pdfrwt>
<totfact> 0.22745102E-03</totfact>
</mgrwt>
</event>
<event>
13    1  0.2101801E-008  0.1228571E+03  0.7546771E-02  0.1404599E+00
          2   -1    0    0  503    0  0.00000000000E+00  0.00000000000E+00  0.70361109962E+03  0.70361109962E+03  0.00000000000E+00 0. -1.
          2   -1    0    0  502    0 -0.00000000000E+00 -0.00000000000E+00 -0.38138221787E+04  0.38138221787E+04  0.00000000000E+00 0. -1.
         24    2    1    2    0    0 -0.24895889424E+02 -0.34830532654E+02 -0.14323657268E+04  0.14357195421E+04  0.88238636209E+02 0.  0.
         25    2    1    2    0    0 -0.13280864805E+03 -0.65383609209E+02 -0.11256580798E+02  0.19407238528E+03  0.12499690702E+03 0.  0.
         24    2    1    2    0    0  0.43224697059E+02  0.54271122651E+02 -0.12539510290E+04  0.12584685898E+04  0.80847258182E+02 0.  0.
        -11    1    5    5    0    0  0.25141347574E+01  0.62059015969E+02 -0.89009321857E+03  0.89225757496E+03  0.00000000000E+00 0.  1.
         12    1    5    5    0    0  0.40710562302E+02 -0.77878933179E+01 -0.36385781047E+03  0.36621101486E+03  0.00000000000E+00 0. -1.
        -11    1    3    3    0    0  0.28444093847E+02 -0.22887455975E+02 -0.33291374382E+03  0.33490963399E+03  0.00000000000E+00 0.  1.
         12    1    3    3    0    0 -0.53339983270E+02 -0.11943076679E+02 -0.10994519829E+04  0.11008099081E+04  0.00000000000E+00 0. -1.
          5    1    4    4  501    0  0.46123230440E+01  0.24847873408E+02 -0.14623604129E+02  0.29574146386E+02  0.47000000000E+01 0. -1.
         -5    1    4    4    0  501 -0.13742097110E+03 -0.90231482617E+02  0.33670233306E+01  0.16449823889E+03  0.47000000000E+01 0. -1.
          1    1    1    2  502    0  0.14820429957E+02 -0.23491878294E+02 -0.10146496823E+04  0.10150297982E+04  0.00000000000E+00 0. -1.
          1    1    1    2  503    0  0.99659410460E+02  0.69434897506E+02  0.60201193988E+03  0.61414296287E+03  0.00000000000E+00 0. -1.
<mgrwt>
<rscale>  0 0.58416573E+02</rscale>
<asrwt>0</asrwt>
<pdfrwt beam="1">  1        2 0.10347222E+00 0.12285714E+03</pdfrwt>
<pdfrwt beam="2">  1        2 0.56085619E+00 0.27776132E+02</pdfrwt>
<totfact> 0.90365636E+00</totfact>
</mgrwt>
</event>
<event>
13    1  0.2101801E-008  0.2693682E+03  0.7546771E-02  0.1308210E+00
          2   -1    0    0  503    0  0.00000000000E+00  0.00000000000E+00  0.20673242031E+04  0.20673242031E+04  0.00000000000E+00 0. -1.
          2   -1    0    0  502    0 -0.00000000000E+00 -0.00000000000E+00 -0.23532168056E+04  0.23532168056E+04  0.00000000000E+00 0. -1.
         24    2    1    2    0    0 -0.14452913447E+03 -0.15448621220E+03 -0.12095197117E+03  0.25712594227E+03  0.82034812038E+02 0.  0.
         25    2    1    2    0    0 -0.11634158231E+03 -0.23325485638E+03  0.68789392995E+03  0.74616751715E+03  0.12499885196E+03 0.  0.
         24    2    1    2    0    0  0.12220494382E+03 -0.91416827799E+02 -0.13142315244E+03  0.21490033886E+03  0.74960162373E+02 0.  0.
        -11    1    3    3    0    0 -0.27157259530E+01 -0.41159708231E+02 -0.45961434347E+01  0.41504473055E+02  0.00000000000E+00 0.  1.
         12    1    3    3    0    0 -0.14181340851E+03 -0.11332650397E+03 -0.11635582774E+03  0.21562146922E+03  0.00000000000E+00 0. -1.
        -13    1    5    5    0    0  0.65976611351E+00  0.10334501590E+02 -0.26944664265E+01  0.10700344096E+02  0.00000000000E+00 0.  1.
         14    1    5    5    0    0  0.12154517771E+03 -0.10175132939E+03 -0.12872868602E+03  0.20419999476E+03  0.00000000000E+00 0. -1.
          5    1    4    4  501    0 -0.30876306537E+02 -0.13633923424E+03  0.49162099465E+03  0.51113112357E+03  0.47000000000E+01 0. -1.
         -5    1    4    4    0  501 -0.85465275769E+02 -0.96915622149E+02  0.19627293529E+03  0.23503639358E+03  0.47000000000E+01 0. -1.
          1    1    1    2  502    0  0.13727428400E+03  0.45055814719E+03 -0.19334380935E+04  0.19899823452E+04  0.00000000000E+00 0. -1.
          1    1    1    2  503    0  0.13914889480E+01  0.28599749199E+02  0.12120266846E+04  0.12123648651E+04  0.00000000000E+00 0. -1.
<mgrwt>
<rscale>  0 0.87823542E+02</rscale>
<asrwt>0</asrwt>
<pdfrwt beam="1">  1        2 0.30401827E+00 0.28633580E+02</pdfrwt>
<pdfrwt beam="2">  1        2 0.34606129E+00 0.26936816E+03</pdfrwt>
<totfact> 0.84353745E+00</totfact>
</mgrwt>
</event>
<event>
13    1  0.2101801E-008  0.1643172E+03  0.7546771E-02  0.1309522E+00
          2   -1    0    0  502    0  0.00000000000E+00  0.00000000000E+00  0.56403746932E+03  0.56403746932E+03  0.00000000000E+00 0. -1.
          2   -1    0    0  503    0 -0.00000000000E+00 -0.00000000000E+00 -0.29486980316E+04  0.29486980316E+04  0.00000000000E+00 0. -1.
         24    2    1    2    0    0  0.52713256751E+02  0.21555385987E+03 -0.94592248112E+03  0.97484970880E+03  0.79501324049E+02 0.  0.
         25    2    1    2    0    0  0.61753523113E+02 -0.12437189258E+03  0.22035703787E+03  0.28889809894E+03  0.12499208835E+03 0.  0.
         24    2    1    2    0    0  0.11446485210E+03  0.74392415754E+02 -0.23044321176E+03  0.28155451034E+03  0.86789599368E+02 0.  0.
        -11    1    5    5    0    0  0.65235517633E+02 -0.75778005077E+01 -0.83345213732E+02  0.10611088763E+03  0.00000000000E+00 0.  1.
         12    1    5    5    0    0  0.49229334465E+02  0.81970216262E+02 -0.14709799803E+03  0.17544362271E+03  0.00000000000E+00 0. -1.
        -13    1    3    3    0    0  0.33565273627E+02  0.89665398365E+02 -0.25692348419E+03  0.27418276384E+03  0.00000000000E+00 0.  1.
         14    1    3    3    0    0  0.19147983124E+02  0.12588846151E+03 -0.68899899693E+03  0.70066694497E+03  0.00000000000E+00 0. -1.
          5    1    4    4  501    0  0.95810651694E+02 -0.59440573856E+02  0.12293392584E+03  0.16687631025E+03  0.47000000000E+01 0. -1.
         -5    1    4    4    0  501 -0.34057128581E+02 -0.64931318727E+02  0.97423112029E+02  0.12202178869E+03  0.47000000000E+01 0. -1.
          1    1    1    2  502    0 -0.45856433717E+02  0.69689120739E+01  0.25799338577E+03  0.26212967277E+03  0.00000000000E+00 0. -1.
          1    1    1    2  503    0 -0.18307519824E+03 -0.17254329512E+03 -0.16866452931E+04  0.17053035101E+04  0.00000000000E+00 0. -1.
<mgrwt>
<rscale>  0 0.87301306E+02</rscale>
<asrwt>0</asrwt>
<pdfrwt beam="1">  1        2 0.82946686E-01 0.46382952E+02</pdfrwt>
<pdfrwt beam="2">  1        2 0.43363207E+00 0.16431723E+03</pdfrwt>
<totfact> 0.26238013E+01</totfact>
</mgrwt>
</event>
<event>
13    1  0.2101801E-008  0.1464769E+03  0.7546771E-02  0.1222251E+00
          2   -1    0    0  502    0  0.00000000000E+00  0.00000000000E+00  0.22794620104E+04  0.22794620104E+04  0.00000000000E+00 0. -1.
          2   -1    0    0  503    0 -0.00000000000E+00 -0.00000000000E+00 -0.14313175677E+04  0.14313175677E+04  0.00000000000E+00 0. -1.
         24    2    1    2    0    0 -0.84821620066E+02 -0.34318910150E+02  0.64423901207E+02  0.13660747446E+03  0.78349653516E+02 0.  0.
         25    2    1    2    0    0  0.26703827680E+02  0.21654753925E+02  0.43026119641E+03  0.44936429717E+03  0.12498620587E+03 0.  0.
         24    2    1    2    0    0 -0.88421046774E+02 -0.32866727182E+02  0.13287916042E+03  0.18059767162E+03  0.77846929613E+02 0.  0.
        -11    1    5    5    0    0 -0.25527968457E+02 -0.16686508345E+02  0.10602356912E+03  0.11032277165E+03  0.00000000000E+00 0.  1.
         12    1    5    5    0    0 -0.62893078317E+02 -0.16180218837E+02  0.26855591302E+02  0.70274899971E+02  0.00000000000E+00 0. -1.
        -13    1    3    3    0    0 -0.40307171202E+02  0.51278830411E+01 -0.94990308192E+01  0.41727626596E+02  0.00000000000E+00 0.  1.
         14    1    3    3    0    0 -0.44514448864E+02 -0.39446793191E+02  0.73922932026E+02  0.94879847860E+02  0.00000000000E+00 0. -1.
          5    1    4    4  501    0 -0.40569784700E+02 -0.25724082821E+01  0.62625755098E+02  0.74810426523E+02  0.47000000000E+01 0. -1.
         -5    1    4    4    0  501  0.67273612380E+02  0.24227162208E+02  0.36763544131E+03  0.37455387065E+03  0.47000000000E+01 0. -1.
          1    1    1    2  502    0  0.95511805100E+02 -0.93491760986E+02  0.15755313132E+04  0.15811901002E+04  0.00000000000E+00 0. -1.
          1    1    1    2  503    0  0.51027034059E+02  0.13902264439E+03 -0.13549511286E+04  0.13630200346E+04  0.00000000000E+00 0. -1.
<mgrwt>
<rscale>  0 0.13357114E+03</rscale>
<asrwt>0</asrwt>
<pdfrwt beam="1">  1        2 0.33521500E+00 0.12180245E+03</pdfrwt>
<pdfrwt beam="2">  1        2 0.21048788E+00 0.14647693E+03</pdfrwt>
<totfact> 0.17218858E+01</totfact>
</mgrwt>
</event>
<event>
13    1  0.2101801E-008  0.7437154E+02  0.7546771E-02  0.1402176E+00
         -1   -1    0    0    0  501 -0.00000000000E+00  0.00000000000E+00  0.15211589884E+04  0.15211589884E+04  0.00000000000E+00 0.  1.
          2   -1    0    0  503    0  0.00000000000E+00 -0.00000000000E+00 -0.29050613952E+04  0.29050613952E+04  0.00000000000E+00 0. -1.
         24    2    1    2    0    0 -0.10735111637E+03  0.75739955220E+02  0.89068744155E+03  0.90451166097E+03  0.86927689995E+02 0.  0.
         25    2    1    2    0    0  0.23982678607E+03 -0.29642813752E+02 -0.23563738659E+03  0.35992512231E+03  0.12500212793E+03 0.  0.
         24    2    1    2    0    0 -0.22564479054E+02 -0.37972521935E+02  0.39571643600E+02  0.10224457684E+03  0.83288476868E+02 0.  0.
        -11    1    3    3    0    0 -0.61175925176E+02  0.73589066570E+02  0.75770456150E+03  0.76372380286E+03  0.00000000000E+00 0.  1.
         12    1    3    3    0    0 -0.46175191190E+02  0.21508886504E+01  0.13298288005E+03  0.14078785811E+03  0.00000000000E+00 0. -1.
        -13    1    5    5    0    0 -0.47711316365E+01 -0.52832994820E+02  0.53383922711E+02  0.75259100730E+02  0.00000000000E+00 0.  1.
         14    1    5    5    0    0 -0.17793347417E+02  0.14860472885E+02 -0.13812279111E+02  0.26985476110E+02  0.00000000000E+00 0. -1.
          5    1    4    4  502    0  0.15410913994E+03  0.42452445323E+02 -0.14176493524E+03  0.21370826842E+03  0.47000000000E+01 0. -1.
         -5    1    4    4    0  502  0.85717646135E+02 -0.72095259075E+02 -0.93872451347E+02  0.14621685389E+03  0.47000000000E+01 0. -1.
          1    1    1    2  503    0 -0.38220698233E+02 -0.26953665293E+02 -0.25660170687E+04  0.25664432428E+04  0.00000000000E+00 0. -1.
         -2    1    1    2    0  501 -0.71690492423E+02  0.18829045760E+02  0.48749296332E+03  0.49309578071E+03  0.00000000000E+00 0.  1.
<mgrwt>
<rscale>  0 0.58976848E+02</rscale>
<asrwt>0</asrwt>
<pdfrwt beam="2">  1        2 0.42721491E+00 0.46768813E+02</pdfrwt>
<pdfrwt beam="1">  1       -1 0.22369985E+00 0.74371540E+02</pdfrwt>
<totfact> 0.55777212E-01</totfact>
</mgrwt>
</event>
<event>
13    1  0.2101801E-008  0.1019320E+03  0.7546771E-02  0.1290104E+00
          2   -1    0    0  502    0  0.00000000000E+00  0.00000000000E+00  0.25037796626E+04  0.25037796626E+04  0.00000000000E+00 0. -1.
          2   -1    0    0  503    0 -0.00000000000E+00 -0.00000000000E+00 -0.11165775958E+04  0.11165775958E+04  0.00000000000E+00 0. -1.
         24    2    1    2    0    0 -0.19269325936E+03  0.10518406810E+03 -0.21765493789E+03  0.31952064741E+03  0.80779896921E+02 0.  0.
         25    2    1    2    0    0  0.11558738016E+03 -0.11665755091E+03  0.75483055745E+03  0.78253601574E+03  0.12499607528E+03 0.  0.
         24    2    1    2    0    0  0.17351409949E+03  0.17523549527E+03 -0.75173750597E+02  0.27015141203E+03  0.80722184786E+02 0.  0.
        -11    1    5    5    0    0  0.23811810049E+02  0.44032058248E+02 -0.47805172414E+02  0.69218198191E+02  0.00000000000E+00 0.  1.
         12    1    5    5    0    0  0.14970228944E+03  0.13120343702E+03 -0.27368578184E+02  0.20093321383E+03  0.00000000000E+00 0. -1.
        -13    1    3    3    0    0 -0.56007294714E+02  0.40842944597E+02 -0.22819842276E+02  0.72977451217E+02  0.00000000000E+00 0.  1.
         14    1    3    3    0    0 -0.13668596465E+03  0.64341123505E+02 -0.19483509562E+03  0.24654319620E+03  0.00000000000E+00 0. -1.
          5    1    4    4  501    0  0.10969605144E+03 -0.64998685309E+02  0.31870972045E+03  0.34330165847E+03  0.47000000000E+01 0. -1.
         -5    1    4    4    0  501  0.58913287181E+01 -0.51658865600E+02  0.43612083700E+03  0.43923435727E+03  0.47000000000E+01 0. -1.
          1    1    1    2  502    0 -0.42842113979E+02 -0.92147113396E+02  0.15820142365E+04  0.15852746077E+04  0.00000000000E+00 0. -1.
          1    1    1    2  503    0 -0.53566106305E+02 -0.71614899068E+02 -0.65681403864E+03  0.66287457552E+03  0.00000000000E+00 0. -1.
<mgrwt>
<rscale>  0 0.95477463E+02</rscale>
<asrwt>0</asrwt>
<pdfrwt beam="1">  1        2 0.36820289E+00 0.10193198E+03</pdfrwt>
<pdfrwt beam="2">  1        2 0.16420259E+00 0.89431658E+02</pdfrwt>
<totfact> 0.20554892E+01</totfact>
</mgrwt>
</event>
<event>
13    1  0.2101801E-008  0.3141470E+03  0.7546771E-02  0.1232611E+00
         -1   -1    0    0    0  501 -0.00000000000E+00  0.00000000000E+00  0.42475580034E+04  0.42475580034E+04  0.00000000000E+00 0.  1.
          2   -1    0    0  503    0  0.00000000000E+00 -0.00000000000E+00 -0.27874351480E+04  0.27874351480E+04  0.00000000000E+00 0. -1.
         24    2    1    2    0    0 -0.19953817265E+03 -0.83771699904E+02  0.29797743409E+03  0.37714897346E+03  0.81348736356E+02 0.  0.
         25    2    1    2    0    0 -0.98422025400E+02 -0.40596164255E+03 -0.13152120363E+04  0.13856033342E+04  0.12498859487E+03 0.  0.
         24    2    1    2    0    0  0.69943716741E+02 -0.54076919962E+02 -0.11486555731E+03  0.16595728309E+03  0.80816376863E+02 0.  0.
        -11    1    5    5    0    0  0.14299134550E+02 -0.61234579570E+02 -0.51120505514E+02  0.81039774605E+02  0.00000000000E+00 0.  1.
         12    1    5    5    0    0  0.55644582191E+02  0.71576596080E+01 -0.63745051799E+02  0.84917508484E+02  0.00000000000E+00 0. -1.
        -13    1    3    3    0    0 -0.17485832910E+03 -0.99926737602E+02  0.26604526038E+03  0.33367779176E+03  0.00000000000E+00 0.  1.
         14    1    3    3    0    0 -0.24679843541E+02  0.16155037698E+02  0.31932173713E+02  0.43471181698E+02  0.00000000000E+00 0. -1.
          5    1    4    4  502    0 -0.21621528563E+02 -0.27696371522E+03 -0.72050430311E+03  0.77222077856E+03  0.47000000000E+01 0. -1.
         -5    1    4    4    0  502 -0.76800496838E+02 -0.12899792733E+03 -0.59470773322E+03  0.61338255561E+03  0.47000000000E+01 0. -1.
          1    1    1    2  503    0 -0.34197980377E+02  0.37846288707E+02 -0.12354089576E+04  0.12364615384E+04  0.00000000000E+00 0. -1.
         -2    1    1    2    0  501  0.26221446168E+03  0.50596397371E+03  0.38276319725E+04  0.38698220222E+04  0.00000000000E+00 0.  1.
<mgrwt>
<rscale>  0 0.12658632E+03</rscale>
<asrwt>0</asrwt>
<pdfrwt beam="2">  1        2 0.40991693E+00 0.51008268E+02</pdfrwt>
<pdfrwt beam="1">  1       -1 0.62464089E+00 0.31414704E+03</pdfrwt>
<totfact> 0.19515389E-03</totfact>
</mgrwt>
</event>
<event>
13    1  0.2101801E-008  0.1239780E+03  0.7546771E-02  0.1334529E+00
          2   -1    0    0  503    0  0.00000000000E+00  0.00000000000E+00  0.71179952263E+03  0.71179952263E+03  0.00000000000E+00 0. -1.
          2   -1    0    0  502    0 -0.00000000000E+00 -0.00000000000E+00 -0.17928798171E+04  0.17928798171E+04  0.00000000000E+00 0. -1.
         24    2    1    2    0    0  0.63266455006E+02  0.61302750185E+02 -0.59739198999E+03  0.60896539242E+03  0.78746351965E+02 0.  0.
         25    2    1    2    0    0  0.68181861834E+01 -0.11715656059E+03 -0.29983738897E+02  0.17405757508E+03  0.12499946997E+03 0.  0.
         24    2    1    2    0    0  0.41744617321E+01  0.22685218586E+02 -0.30978191363E+02  0.89875882906E+02  0.81154055444E+02 0.  0.
        -13    1    5    5    0    0  0.17912680378E+02  0.37342441256E+02 -0.48104540521E+02  0.63477309773E+02  0.00000000000E+00 0.  1.
         14    1    5    5    0    0 -0.13738218646E+02 -0.14657222670E+02  0.17126349158E+02  0.26398573133E+02  0.00000000000E+00 0. -1.
        -13    1    3    3    0    0 -0.15594669260E+02  0.26571222583E+02 -0.12223277163E+03  0.12605583699E+03  0.00000000000E+00 0.  1.
         14    1    3    3    0    0  0.78861124266E+02  0.34731527602E+02 -0.47515921836E+03  0.48290955542E+03  0.00000000000E+00 0. -1.
          5    1    4    4  501    0  0.31315771549E+02 -0.57988821181E+02  0.41457188188E+02  0.78001085775E+02  0.47000000000E+01 0. -1.
         -5    1    4    4    0  501 -0.24497585365E+02 -0.59167739411E+02 -0.71440927085E+02  0.96056489309E+02  0.47000000000E+01 0. -1.
          1    1    1    2  502    0  0.48053805056E+02  0.10558093766E+02 -0.10202560916E+04  0.10214416939E+04  0.00000000000E+00 0. -1.
          1    1    1    2  503    0 -0.12231290798E+03  0.22610498056E+02  0.59752971738E+03  0.61033879545E+03  0.00000000000E+00 0. -1.
<mgrwt>
<rscale>  0 0.78100687E+02</rscale>
<asrwt>0</asrwt>
<pdfrwt beam="1">  1        2 0.10467640E+00 0.12397795E+03</pdfrwt>
<pdfrwt beam="2">  1        2 0.26365879E+00 0.49200015E+02</pdfrwt>
<totfact> 0.85403367E+01</totfact>
</mgrwt>
</event>
<event>
13    1  0.2101801E-008  0.2360866E+03  0.7546771E-02  0.1263354E+00
          2   -1    0    0  503    0  0.00000000000E+00  0.00000000000E+00  0.15530957326E+04  0.15530957326E+04  0.00000000000E+00 0. -1.
          2   -1    0    0  502    0 -0.00000000000E+00 -0.00000000000E+00 -0.11926927844E+04  0.11926927844E+04  0.00000000000E+00 0. -1.
         24    2    1    2    0    0  0.35076624320E+02 -0.31506284634E+03 -0.43106169394E+03  0.54345395566E+03  0.95042365420E+02 0.  0.
         25    2    1    2    0    0 -0.29231327895E+03  0.26848803882E+03  0.75005672601E+03  0.85775460533E+03  0.12499996280E+03 0.  0.
         24    2    1    2    0    0  0.94225611750E+01 -0.39151061434E+02  0.15772304431E+03  0.18134148579E+03  0.79916115354E+02 0.  0.
        -11    1    5    5    0    0  0.37830313003E+02 -0.15621668642E+02  0.37229044553E+02  0.55327848968E+02  0.00000000000E+00 0.  1.
         12    1    5    5    0    0 -0.28407751828E+02 -0.23529392791E+02  0.12049399975E+03  0.12601363682E+03  0.00000000000E+00 0. -1.
        -13    1    3    3    0    0  0.33501894376E+02 -0.26523824325E+03 -0.40971998847E+03  0.48922813856E+03  0.00000000000E+00 0.  1.
         14    1    3    3    0    0  0.15747299439E+01 -0.49824603090E+02 -0.21341705464E+02  0.54225817095E+02  0.00000000000E+00 0. -1.
          5    1    4    4  501    0 -0.17004350147E+03  0.72517233216E+02  0.32136932390E+03  0.37077469419E+03  0.47000000000E+01 0. -1.
         -5    1    4    4    0  501 -0.12226977748E+03  0.19597080561E+03  0.42868740211E+03  0.48697991115E+03  0.47000000000E+01 0. -1.
          1    1    1    2  502    0  0.20654142156E+03  0.11372464180E+03 -0.61677169726E+03  0.66030294525E+03  0.00000000000E+00 0. -1.
          1    1    1    2  503    0  0.41272671898E+02 -0.27998772846E+02  0.50045656905E+03  0.50293552493E+03  0.00000000000E+00 0. -1.
<mgrwt>
<rscale>  0 0.10851018E+03</rscale>
<asrwt>0</asrwt>
<pdfrwt beam="1">  1        2 0.22839643E+00 0.49873487E+02</pdfrwt>
<pdfrwt beam="2">  1        2 0.17539600E+00 0.23608656E+03</pdfrwt>
<totfact> 0.54428508E+01</totfact>
</mgrwt>
</event>
<event>
13    1  0.2101801E-008  0.1966185E+03  0.7546771E-02  0.1276347E+00
          2   -1    0    0  503    0  0.00000000000E+00  0.00000000000E+00  0.25252927486E+04  0.25252927486E+04  0.00000000000E+00 0. -1.
          2   -1    0    0  502    0 -0.00000000000E+00 -0.00000000000E+00 -0.11839297168E+04  0.11839297168E+04  0.00000000000E+00 0. -1.
         24    2    1    2    0    0 -0.21811454835E+03  0.36936950766E+02 -0.28304550814E+03  0.36763569161E+03  0.78121364128E+02 0.  0.
         25    2    1    2    0    0  0.22237497669E+03 -0.21678003097E+03  0.82380177242E+03  0.88922511769E+03  0.12501094996E+03 0.  0.
         24    2    1    2    0    0 -0.47914242615E+02  0.52832750945E+01  0.26460747308E+03  0.28138718968E+03  0.82691886344E+02 0.  0.
        -11    1    5    5    0    0  0.14505911860E+02 -0.96863535127E+01  0.14129923569E+03  0.14237177013E+03  0.00000000000E+00 0.  1.
         12    1    5    5    0    0 -0.62420154475E+02  0.14969628607E+02  0.12330823738E+03  0.13901541955E+03  0.00000000000E+00 0. -1.
        -13    1    3    3    0    0 -0.60562313813E+02 -0.45692404470E+01 -0.13270517140E+03  0.14594291462E+03  0.00000000000E+00 0.  1.
         14    1    3    3    0    0 -0.15755223454E+03  0.41506191213E+02 -0.15034033674E+03  0.22169277699E+03  0.00000000000E+00 0. -1.
          5    1    4    4  501    0  0.11454701925E+03 -0.13839430349E+03  0.30935604113E+03  0.35776703739E+03  0.47000000000E+01 0. -1.
         -5    1    4    4    0  501  0.10782795743E+03 -0.78385727471E+02  0.51444573129E+03  0.53145808030E+03  0.47000000000E+01 0. -1.
          1    1    1    2  502    0  0.96404339957E+02  0.17199291031E+03 -0.80507159569E+03  0.82886406132E+03  0.00000000000E+00 0. -1.
          1    1    1    2  503    0 -0.52750525677E+02  0.25668947959E+01  0.13410708902E+04  0.13421104051E+04  0.00000000000E+00 0. -1.
<mgrwt>
<rscale>  0 0.10190192E+03</rscale>
<asrwt>0</asrwt>
<pdfrwt beam="1">  1        2 0.37136658E+00 0.52812943E+02</pdfrwt>
<pdfrwt beam="2">  1        2 0.17410731E+00 0.19661851E+03</pdfrwt>
<totfact> 0.19276507E+01</totfact>
</mgrwt>
</event>
<event>
13    1  0.2101801E-008  0.7514957E+02  0.7546771E-02  0.1464825E+00
          4   -1    0    0  503    0  0.00000000000E+00  0.00000000000E+00  0.21165191363E+04  0.21165191363E+04  0.00000000000E+00 0. -1.
         -3   -1    0    0    0  501 -0.00000000000E+00 -0.00000000000E+00 -0.18956022365E+04  0.18956022365E+04  0.00000000000E+00 0.  1.
         24    2    1    2    0    0 -0.44616767904E+02  0.59943257543E+02 -0.11249225443E+03  0.15674323228E+03  0.79561821587E+02 0.  0.
         25    2    1    2    0    0  0.98930833387E+01  0.24909085155E+02  0.64773234575E+03  0.66022347971E+03  0.12497806131E+03 0.  0.
         24    2    1    2    0    0  0.28851509451E+01 -0.17463907781E+03  0.80206288093E+02  0.20838459795E+03  0.80523042769E+02 0.  0.
        -13    1    5    5    0    0 -0.12117190720E+02 -0.10466801365E+03  0.63685606319E+01  0.10555935750E+03  0.00000000000E+00 0.  1.
         14    1    5    5    0    0  0.15002341665E+02 -0.69971064164E+02  0.73837727461E+02  0.10282524044E+03  0.00000000000E+00 0. -1.
        -13    1    3    3    0    0 -0.32365641084E+02 -0.34777096007E+01 -0.75709728370E+02  0.82411116706E+02  0.00000000000E+00 0.  1.
         14    1    3    3    0    0 -0.12251126820E+02  0.63420967143E+02 -0.36782526063E+02  0.74332115571E+02  0.00000000000E+00 0. -1.
          5    1    4    4  502    0 -0.34683112981E+02  0.29473189067E+02  0.55743505107E+03  0.55930985452E+03  0.47000000000E+01 0. -1.
         -5    1    4    4    0  502  0.44576196320E+02 -0.45641039129E+01  0.90297294677E+02  0.10091362519E+03  0.47000000000E+01 0. -1.
          3    1    1    2  503    0  0.24641728504E+02  0.15000222926E+02  0.12951248761E+04  0.12954461264E+04  0.00000000000E+00 0. -1.
         -4    1    1    2    0  501  0.71968051159E+01  0.74786512188E+02 -0.16896543558E+04  0.16913239365E+04  0.00000000000E+00 0.  1.
<mgrwt>
<rscale>  0 0.46561074E+02</rscale>
<asrwt>0</asrwt>
<pdfrwt beam="1">  1        4 0.31125281E+00 0.28848249E+02</pdfrwt>
<pdfrwt beam="2">  1       -3 0.27876503E+00 0.75149574E+02</pdfrwt>
<totfact> 0.47492021E-03</totfact>
</mgrwt>
</event>
<event>
13    1  0.2101801E-008  0.2610998E+03  0.7546771E-02  0.1266147E+00
          4   -1    0    0  503    0  0.00000000000E+00  0.00000000000E+00  0.83222201133E+03  0.83222201133E+03  0.00000000000E+00 0. -1.
         -1   -1    0    0    0  501 -0.00000000000E+00 -0.00000000000E+00 -0.27114580666E+04  0.27114580666E+04  0.00000000000E+00 0.  1.
         24    2    1    2    0    0 -0.11697598282E+03  0.16495096294E+02 -0.80062381816E+03  0.81344893412E+03  0.82129175412E+02 0.  0.
         25    2    1    2    0    0 -0.32344647271E+03  0.14720841269E+03 -0.14085199920E+04  0.14580267350E+04  0.12500181914E+03 0.  0.
         24    2    1    2    0    0 -0.91788506415E+02  0.90203106420E+02  0.26592047826E+03  0.30638441376E+03  0.81215626078E+02 0.  0.
        -11    1    5    5    0    0 -0.90447384234E+02  0.39008950667E+02  0.14751276253E+03  0.17737655611E+03  0.00000000000E+00 0.  1.
         12    1    5    5    0    0 -0.13411221808E+01  0.51194155753E+02  0.11840771573E+03  0.12900785765E+03  0.00000000000E+00 0. -1.
        -13    1    3    3    0    0 -0.96970285493E+02  0.25196347075E+02 -0.40444664099E+03  0.41667154640E+03  0.00000000000E+00 0.  1.
         14    1    3    3    0    0 -0.20005697328E+02 -0.87012507811E+01 -0.39617717718E+03  0.39677738772E+03  0.00000000000E+00 0. -1.
          5    1    4    4  502    0 -0.19657609204E+03  0.21201805575E+02 -0.75342698409E+03  0.77895185145E+03  0.47000000000E+01 0. -1.
         -5    1    4    4    0  502 -0.12687038067E+03  0.12600660712E+03 -0.65509300787E+03  0.67907488356E+03  0.47000000000E+01 0. -1.
          3    1    1    2  503    0  0.49547961920E+03 -0.27791925353E+03  0.35606522378E+03  0.67046372617E+03  0.00000000000E+00 0. -1.
         -2    1    1    2    0  501  0.36731342748E+02  0.24012638120E+02 -0.29207794716E+03  0.29535626885E+03  0.00000000000E+00 0.  1.
<mgrwt>
<rscale>  0 0.10704243E+03</rscale>
<asrwt>0</asrwt>
<pdfrwt beam="1">  1        4 0.12238559E+00 0.26109979E+03</pdfrwt>
<pdfrwt beam="2">  1       -1 0.39874383E+00 0.43883919E+02</pdfrwt>
<totfact> 0.24855526E-02</totfact>
</mgrwt>
</event>
<event>
13    1  0.2101801E-008  0.2003602E+03  0.7546771E-02  0.1171916E+00
          2   -1    0    0  502    0  0.00000000000E+00  0.00000000000E+00  0.20835999947E+04  0.20835999947E+04  0.00000000000E+00 0. -1.
          2   -1    0    0  503    0 -0.00000000000E+00 -0.00000000000E+00 -0.21803962087E+04  0.21803962087E+04  0.00000000000E+00 0. -1.
         24    2    1    2    0    0 -0.80846300540E+02  0.99081899339E+02 -0.49758765006E+03  0.51991608080E+03  0.79786681184E+02 0.  0.
         25    2    1    2    0    0  0.52906014071E+01 -0.33415363095E+03  0.11950411518E+04  0.12471713244E+04  0.12500527329E+03 0.  0.
         24    2    1    2    0    0  0.13088230479E+03  0.46448202886E+02  0.17944219303E+03  0.24042009108E+03  0.79465126286E+02 0.  0.
        -11    1    5    5    0    0  0.12713092331E+03  0.51216379435E+02  0.12456183156E+03  0.18520539697E+03  0.00000000000E+00 0.  1.
         12    1    5    5    0    0  0.37513814802E+01 -0.47681765493E+01  0.54880361469E+02  0.55214694109E+02  0.00000000000E+00 0. -1.
        -11    1    3    3    0    0 -0.95130331301E+02  0.69365134563E+02 -0.38487966183E+03  0.40248435487E+03  0.00000000000E+00 0.  1.
         12    1    3    3    0    0  0.14284030761E+02  0.29716764777E+02 -0.11270798823E+03  0.11743172593E+03  0.00000000000E+00 0. -1.
          5    1    4    4  501    0 -0.22100809746E+02 -0.31729841184E+03  0.99807116878E+03  0.10475375296E+04  0.47000000000E+01 0. -1.
         -5    1    4    4    0  501  0.27391411153E+02 -0.16855219114E+02  0.19696998306E+03  0.19963379485E+03  0.47000000000E+01 0. -1.
          1    1    1    2  502    0 -0.18703640360E+03  0.23967788283E+02  0.62044552468E+03  0.64846720831E+03  0.00000000000E+00 0. -1.
          1    1    1    2  503    0  0.13170979794E+03  0.16465574044E+03 -0.15941374335E+04  0.16080214988E+04  0.00000000000E+00 0. -1.
<mgrwt>
<rscale>  0 0.17581514E+03</rscale>
<asrwt>0</asrwt>
<pdfrwt beam="1">  1        2 0.30641176E+00 0.15427694E+03</pdfrwt>
<pdfrwt beam="2">  1        2 0.32064650E+00 0.20036024E+03</pdfrwt>
<totfact> 0.86368632E+00</totfact>
</mgrwt>
</event>
<event>
13    1  0.2101801E-008  0.2647575E+03  0.7546771E-02  0.1224649E+00
          2   -1    0    0  502    0  0.00000000000E+00  0.00000000000E+00  0.12519687620E+04  0.12519687620E+04  0.00000000000E+00 0. -1.
          2   -1    0    0  503    0 -0.00000000000E+00 -0.00000000000E+00 -0.21483850591E+04  0.21483850591E+04  0.00000000000E+00 0. -1.
         24    2    1    2    0    0 -0.36537001028E+03  0.13430785617E+03 -0.91452473488E+03  0.99722021675E+03  0.80986575032E+02 0.  0.
         25    2    1    2    0    0  0.23141932547E+03 -0.29608990547E+03  0.21380812380E+03  0.45007065839E+03  0.12500218962E+03 0.  0.
         24    2    1    2    0    0  0.27787340938E+03 -0.12718343371E+03 -0.18036648182E+03  0.36125018598E+03  0.67678443033E+02 0.  0.
        -11    1    3    3    0    0 -0.12969517803E+03  0.86596333609E+02 -0.39827146001E+03  0.42771476484E+03  0.00000000000E+00 0.  1.
         12    1    3    3    0    0 -0.23567483225E+03  0.47711522566E+02 -0.51625327487E+03  0.56950545191E+03  0.00000000000E+00 0. -1.
        -13    1    5    5    0    0  0.23867881008E+03 -0.80430792141E+02 -0.14921663143E+03  0.29274953424E+03  0.00000000000E+00 0.  1.
         14    1    5    5    0    0  0.39194599305E+02 -0.46752641571E+02 -0.31149850392E+02  0.68500651734E+02  0.00000000000E+00 0. -1.
          5    1    4    4  501    0  0.88465718989E+02 -0.19981248952E+03  0.15480212552E+03  0.26783764200E+03  0.47000000000E+01 0.  1.
         -5    1    4    4    0  501  0.14295360648E+03 -0.96277415957E+02  0.59005998277E+02  0.18223301639E+03  0.47000000000E+01 0.  1.
          1    1    1    2  502    0 -0.47812019041E+02  0.45091747442E+02  0.76541716890E+03  0.76823349140E+03  0.00000000000E+00 0. -1.
          1    1    1    2  503    0 -0.96110705532E+02  0.24387373557E+03 -0.78075037308E+03  0.82357926861E+03  0.00000000000E+00 0. -1.
<mgrwt>
<rscale>  0 0.13190959E+03</rscale>
<asrwt>0</asrwt>
<pdfrwt beam="1">  1        2 0.18411306E+00 0.65721038E+02</pdfrwt>
<pdfrwt beam="2">  1        2 0.31593898E+00 0.26475754E+03</pdfrwt>
<totfact> 0.23997380E+01</totfact>
</mgrwt>
</event>
<event>
13    1  0.2101801E-008  0.5766617E+02  0.7546771E-02  0.1432610E+00
          2   -1    0    0  503    0  0.00000000000E+00  0.00000000000E+00  0.13005190041E+04  0.13005190041E+04  0.00000000000E+00 0. -1.
          2   -1    0    0  502    0 -0.00000000000E+00 -0.00000000000E+00 -0.17794066862E+04  0.17794066862E+04  0.00000000000E+00 0. -1.
         24    2    1    2    0    0 -0.76337885520E+02 -0.68385174338E+02 -0.77371379131E+03  0.78475010112E+03  0.81827168582E+02 0.  0.
         25    2    1    2    0    0 -0.19339009597E+01  0.25556394953E+03  0.16847599766E+03  0.33064570615E+03  0.12500299570E+03 0.  0.
         24    2    1    2    0    0  0.57446264957E+02 -0.84103795762E+02  0.11196112593E+03  0.17096751090E+03  0.79505183754E+02 0.  0.
        -13    1    5    5    0    0  0.24523089848E+02  0.12225049516E+02  0.24449813352E+02  0.36723659190E+02  0.00000000000E+00 0.  1.
         14    1    5    5    0    0  0.32923175109E+02 -0.96328845278E+02  0.87511312578E+02  0.13424385171E+03  0.00000000000E+00 0. -1.
        -13    1    3    3    0    0 -0.23030877565E+02  0.16632415861E+02 -0.24088667701E+03  0.24255607545E+03  0.00000000000E+00 0.  1.
         14    1    3    3    0    0 -0.53307007956E+02 -0.85017590199E+02 -0.53282711430E+03  0.54219402567E+03  0.00000000000E+00 0. -1.
          5    1    4    4  501    0 -0.55198564306E+02  0.19929074741E+03  0.12035562871E+03  0.23931412593E+03  0.47000000000E+01 0.  1.
         -5    1    4    4    0  501  0.53264663347E+02  0.56273202113E+02  0.48120368949E+02  0.91331580219E+02  0.47000000000E+01 0.  1.
          1    1    1    2  502    0  0.67194288812E+01 -0.47211154648E+02 -0.88802821242E+03  0.88930768011E+03  0.00000000000E+00 0. -1.
          1    1    1    2  503    0  0.14106092642E+02 -0.55863824780E+02  0.90241719801E+03  0.90425469201E+03  0.00000000000E+00 0. -1.
<mgrwt>
<rscale>  0 0.52439709E+02</rscale>
<asrwt>0</asrwt>
<pdfrwt beam="1">  1        2 0.19125280E+00 0.57666172E+02</pdfrwt>
<pdfrwt beam="2">  1        2 0.26167745E+00 0.47686936E+02</pdfrwt>
<totfact> 0.41009346E+01</totfact>
</mgrwt>
</event>
<event>
13    1  0.2101801E-008  0.1480756E+03  0.7546771E-02  0.1331544E+00
          2   -1    0    0  503    0  0.00000000000E+00  0.00000000000E+00  0.50705008051E+03  0.50705008051E+03  0.00000000000E+00 0. -1.
          2   -1    0    0  502    0 -0.00000000000E+00 -0.00000000000E+00 -0.11122445543E+04  0.11122445543E+04  0.00000000000E+00 0. -1.
         24    2    1    2    0    0 -0.12646751898E+02  0.20948534673E+02 -0.19052055647E+03  0.20910666230E+03  0.82636144298E+02 0.  0.
         25    2    1    2    0    0 -0.26000031179E+02 -0.26224143270E+03 -0.72901589607E+02  0.30064368347E+03  0.12500164798E+03 0.  0.
         24    2    1    2    0    0  0.54747769440E+02 -0.21378436364E+02  0.86022097354E+02  0.13258088891E+03  0.81997165013E+02 0.  0.
        -11    1    3    3    0    0  0.15020042267E+02  0.19855624957E+02 -0.17616970288E+03  0.17792023978E+03  0.00000000000E+00 0.  1.
         12    1    3    3    0    0 -0.27666794164E+02  0.10929097164E+01 -0.14350853592E+02  0.31186422524E+02  0.00000000000E+00 0. -1.
        -13    1    5    5    0    0  0.46273962103E+02  0.15017668270E+02  0.81530684053E+02  0.94942416080E+02  0.00000000000E+00 0.  1.
         14    1    5    5    0    0  0.84738073371E+01 -0.36396104634E+02  0.44914133006E+01  0.37638472827E+02  0.00000000000E+00 0. -1.
          5    1    4    4  501    0  0.29037327552E+02 -0.91357082593E+02  0.20613661768E+02  0.98164637130E+02  0.47000000000E+01 0. -1.
         -5    1    4    4    0  501 -0.55037358731E+02 -0.17088435011E+03 -0.93515251375E+02  0.20247904634E+03  0.47000000000E+01 0. -1.
          1    1    1    2  502    0 -0.70611073581E+01  0.41690647910E+02 -0.65705409200E+03  0.65841328144E+03  0.00000000000E+00 0. -1.
          1    1    1    2  503    0 -0.90398790055E+01  0.22098068648E+03  0.22925966696E+03  0.31855011867E+03  0.00000000000E+00 0. -1.
<mgrwt>
<rscale>  0 0.79128286E+02</rscale>
<asrwt>0</asrwt>
<pdfrwt beam="1">  1        2 0.74566190E-01 0.14807559E+03</pdfrwt>
<pdfrwt beam="2">  1        2 0.16356537E+00 0.42284387E+02</pdfrwt>
<totfact> 0.26956303E+02</totfact>
</mgrwt>
</event>
<event>
13    1  0.2101801E-008  0.1671756E+03  0.7546771E-02  0.1322209E+00
          2   -1    0    0  503    0  0.00000000000E+00  0.00000000000E+00  0.21041888536E+04  0.21041888536E+04  0.00000000000E+00 0. -1.
          2   -1    0    0  502    0 -0.00000000000E+00 -0.00000000000E+00 -0.92600357869E+03  0.92600357869E+03  0.00000000000E+00 0. -1.
         24    2    1    2    0    0 -0.25865626295E+03  0.35379674807E+03 -0.69873187994E+02  0.45078048809E+03  0.79029012018E+02 0.  0.
         25    2    1    2    0    0  0.11443658919E+03 -0.19236889140E+03 -0.23359171752E+03  0.34683220649E+03  0.12500386250E+03 0.  0.
         24    2    1    2    0    0  0.84456562995E+02 -0.27970992697E+03  0.28897307877E+03  0.41776022544E+03  0.75150591668E+02 0.  0.
        -11    1    3    3    0    0 -0.13965306840E+03  0.13398066243E+03 -0.50833964562E+02  0.20009470101E+03  0.00000000000E+00 0.  1.
         12    1    3    3    0    0 -0.11900319455E+03  0.21981608564E+03 -0.19039223432E+02  0.25068578708E+03  0.00000000000E+00 0. -1.
        -13    1    5    5    0    0 -0.11814738832E+02 -0.68083170320E+02  0.70692729634E+02  0.98855288971E+02  0.00000000000E+00 0.  1.
         14    1    5    5    0    0  0.96271301827E+02 -0.21162675665E+03  0.21828034913E+03  0.31890493647E+03  0.00000000000E+00 0. -1.
          5    1    4    4  501    0  0.11872114816E+02 -0.14080074255E+03 -0.13368115527E+03  0.19457270489E+03  0.47000000000E+01 0.  1.
         -5    1    4    4    0  501  0.10256447437E+03 -0.51568148853E+02 -0.99910562254E+02  0.15225950161E+03  0.47000000000E+01 0.  1.
          1    1    1    2  502    0  0.94391139022E+02  0.13962027263E+03 -0.28794422370E+03  0.33363960140E+03  0.00000000000E+00 0. -1.
          1    1    1    2  503    0 -0.34628028255E+02 -0.21338202323E+02  0.14806213254E+04  0.14811799109E+04  0.00000000000E+00 0. -1.
<mgrwt>
<rscale>  0 0.82460856E+02</rscale>
<asrwt>0</asrwt>
<pdfrwt beam="1">  1        2 0.30943954E+00 0.40674552E+02</pdfrwt>
<pdfrwt beam="2">  1        2 0.13617700E+00 0.16717560E+03</pdfrwt>
<totfact> 0.44779128E+01</totfact>
</mgrwt>
</event>
<event>
13    1  0.2101801E-008  0.1449433E+03  0.7546771E-02  0.1318088E+00
          2   -1    0    0  503    0  0.00000000000E+00  0.00000000000E+00  0.16922533069E+04  0.16922533069E+04  0.00000000000E+00 0. -1.
         -3   -1    0    0    0  501 -0.00000000000E+00 -0.00000000000E+00 -0.89297135916E+03  0.89297135916E+03  0.00000000000E+00 0.  1.
         24    2    1    2    0    0  0.10486215072E+03  0.62271980207E+02 -0.52783295725E+02  0.15593344442E+03  0.81579976764E+02 0.  0.
         25    2    1    2    0    0 -0.63220350790E+02 -0.39303552136E+02  0.50850761203E+03  0.52891206627E+03  0.12500560140E+03 0.  0.
         24    2    1    2    0    0  0.44451364181E+02  0.96903907184E+02  0.51019817615E+03  0.52748444634E+03  0.81063994328E+02 0.  0.
        -11    1    3    3    0    0  0.10531666814E+03  0.48543391844E+02 -0.16495793242E+02  0.11713314080E+03  0.00000000000E+00 0.  1.
         12    1    3    3    0    0 -0.45451741676E+00  0.13728588363E+02 -0.36287502483E+02  0.38800303619E+02  0.00000000000E+00 0. -1.
        -11    1    5    5    0    0 -0.15590542394E+02  0.61231070597E+02  0.21190235352E+03  0.22112194926E+03  0.00000000000E+00 0.  1.
         12    1    5    5    0    0  0.60041906575E+02  0.35672836587E+02  0.29829582263E+03  0.30636249707E+03  0.00000000000E+00 0. -1.
          5    1    4    4  502    0  0.93861147029E+01 -0.80435626250E+01 -0.10234310716E+01  0.13264066499E+02  0.47000000000E+01 0.  1.
         -5    1    4    4    0  502 -0.72606465493E+02 -0.31259989511E+02  0.50953104311E+03  0.51564799977E+03  0.47000000000E+01 0.  1.
          1    1    1    2  503    0  0.34732338896E+02 -0.34098324544E+02  0.59499340437E+03  0.59698088943E+03  0.00000000000E+00 0. -1.
         -4    1    1    2    0  501 -0.12082550301E+03 -0.85774010711E+02 -0.76163394908E+03  0.77591381962E+03  0.00000000000E+00 0.  1.
<mgrwt>
<rscale>  0 0.83992739E+02</rscale>
<asrwt>0</asrwt>
<pdfrwt beam="1">  1        2 0.24886078E+00 0.48672694E+02</pdfrwt>
<pdfrwt beam="2">  1       -3 0.13131932E+00 0.14494329E+03</pdfrwt>
<totfact> 0.40540528E+00</totfact>
</mgrwt>
</event>
<event>
13    1  0.2101801E-008  0.9641102E+02  0.7546771E-02  0.1316488E+00
          2   -1    0    0  503    0  0.00000000000E+00  0.00000000000E+00  0.65620650919E+03  0.65620650919E+03  0.00000000000E+00 0. -1.
          2   -1    0    0  502    0 -0.00000000000E+00 -0.00000000000E+00 -0.15063623414E+04  0.15063623414E+04  0.00000000000E+00 0. -1.
         24    2    1    2    0    0 -0.97830711414E+02 -0.12842401511E+02 -0.20641277664E+03  0.24303370235E+03  0.81996162984E+02 0.  0.
         25    2    1    2    0    0 -0.82017125724E+02  0.33899543929E+02  0.86799851947E+02  0.17617008500E+03  0.12500278621E+03 0.  0.
         24    2    1    2    0    0  0.15794541487E+02 -0.74607396474E+01 -0.94765034637E+00  0.82028730835E+02  0.80141652493E+02 0.  0.
        -11    1    3    3    0    0 -0.77372455112E+02  0.41233680270E+01 -0.71181778898E+02  0.10521570520E+03  0.00000000000E+00 0.  1.
         12    1    3    3    0    0 -0.20458256302E+02 -0.16965769538E+02 -0.13523099774E+03  0.13781799715E+03  0.00000000000E+00 0. -1.
        -13    1    5    5    0    0  0.41885463201E+02  0.16247746600E+02  0.80569586342E+01  0.45643136172E+02  0.00000000000E+00 0.  1.
         14    1    5    5    0    0 -0.26090921714E+02 -0.23708486248E+02 -0.90046089805E+01  0.36385594663E+02  0.00000000000E+00 0. -1.
          5    1    4    4  501    0 -0.41014301226E+02 -0.45265488988E+02  0.51976411905E+02  0.80341613084E+02  0.47000000000E+01 0. -1.
         -5    1    4    4    0  501 -0.41002824497E+02  0.79165032917E+02  0.34823440042E+02  0.95828471917E+02  0.47000000000E+01 0. -1.
          1    1    1    2  502    0  0.72019650518E+02  0.17986171714E+02 -0.11892152487E+04  0.11915297898E+04  0.00000000000E+00 0. -1.
          1    1    1    2  503    0  0.92033645133E+02 -0.31582574485E+02  0.45961999149E+03  0.46980654256E+03  0.00000000000E+00 0. -1.
<mgrwt>
<rscale>  0 0.84597551E+02</rscale>
<asrwt>0</asrwt>
<pdfrwt beam="1">  1        2 0.96500959E-01 0.96411021E+02</pdfrwt>
<pdfrwt beam="2">  1        2 0.22152387E+00 0.74231613E+02</pdfrwt>
<totfact> 0.12448047E+02</totfact>
</mgrwt>
</event>
<event>
13    1  0.2101801E-008  0.8927601E+02  0.7546771E-02  0.1457450E+00
          2   -1    0    0  502    0  0.00000000000E+00  0.00000000000E+00  0.23293743426E+04  0.23293743426E+04  0.00000000000E+00 0. -1.
          2   -1    0    0  503    0 -0.00000000000E+00 -0.00000000000E+00 -0.11110428408E+04  0.11110428408E+04  0.00000000000E+00 0. -1.
         24    2    1    2    0    0  0.84881105022E+02 -0.25594229503E+02 -0.13700674269E+03  0.18199671662E+03  0.80573511425E+02 0.  0.
         25    2    1    2    0    0 -0.11049697173E+03 -0.42093896550E+02  0.49207813729E+03  0.52129349843E+03  0.12499816567E+03 0.  0.
         24    2    1    2    0    0 -0.37599619072E+02  0.58396976522E+02  0.12056305685E+03  0.16111507556E+03  0.81232251445E+02 0.  0.
        -11    1    3    3    0    0  0.64112501870E+02 -0.51033760977E+02 -0.71642431448E+02  0.10884620177E+03  0.00000000000E+00 0.  1.
         12    1    3    3    0    0  0.20768603152E+02  0.25439531475E+02 -0.65364311244E+02  0.73150514850E+02  0.00000000000E+00 0. -1.
        -13    1    5    5    0    0  0.20463892273E+02  0.41697983747E+02  0.53534456911E+02  0.70876165333E+02  0.00000000000E+00 0.  1.
         14    1    5    5    0    0 -0.58063511345E+02  0.16698992774E+02  0.67028599938E+02  0.90238910228E+02  0.00000000000E+00 0. -1.
          5    1    4    4  501    0 -0.18456321122E+02 -0.54786247120E+02  0.32432952969E+03  0.32947519252E+03  0.47000000000E+01 0.  1.
         -5    1    4    4    0  501 -0.92040650612E+02  0.12692350570E+02  0.16774860760E+03  0.19181830591E+03  0.47000000000E+01 0.  1.
          1    1    1    2  502    0  0.88106362828E+02  0.15349985099E+02  0.16579700827E+04  0.16603804227E+04  0.00000000000E+00 0. -1.
          1    1    1    2  503    0 -0.24890877044E+02 -0.60588355683E+01 -0.91527303228E+03  0.91563147001E+03  0.00000000000E+00 0. -1.
<mgrwt>
<rscale>  0 0.47823047E+02</rscale>
<asrwt>0</asrwt>
<pdfrwt beam="1">  1        2 0.34255505E+00 0.89276012E+02</pdfrwt>
<pdfrwt beam="2">  1        2 0.16338865E+00 0.25617675E+02</pdfrwt>
<totfact> 0.27563407E+01</totfact>
</mgrwt>
</event>
<event>
13    1  0.2101801E-008  0.9280889E+02  0.7546771E-02  0.1374491E+00
          2   -1    0    0  502    0  0.00000000000E+00  0.00000000000E+00  0.28041489966E+04  0.28041489966E+04  0.00000000000E+00 0. -1.
          2   -1    0    0  503    0 -0.00000000000E+00 -0.00000000000E+00 -0.91272368050E+03  0.91272368050E+03  0.00000000000E+00 0. -1.
         24    2    1    2    0    0  0.52433255545E+01 -0.43397141149E+02 -0.13045951964E+03  0.16716194898E+03  0.94934854510E+02 0.  0.
         25    2    1    2    0    0 -0.83195210058E+02  0.52984379514E+02  0.11978684745E+04  0.12084050937E+04  0.12500080345E+03 0.  0.
         24    2    1    2    0    0  0.70527760417E+02 -0.55030042319E+02  0.50949893145E+03  0.52354828704E+03  0.80691865548E+02 0.  0.
        -11    1    3    3    0    0  0.39252110810E+02 -0.60206597719E+01 -0.10133143620E+03  0.10883490483E+03  0.00000000000E+00 0.  1.
         12    1    3    3    0    0 -0.34008785255E+02 -0.37376481377E+02 -0.29128083435E+02  0.58327044150E+02  0.00000000000E+00 0. -1.
        -13    1    5    5    0    0  0.66114186416E+02 -0.23596622129E+01  0.24213428115E+03  0.25100929019E+03  0.00000000000E+00 0.  1.
         14    1    5    5    0    0  0.44135740006E+01 -0.52670380106E+02  0.26736465030E+03  0.27253899685E+03  0.00000000000E+00 0. -1.
          5    1    4    4  501    0 -0.95194257247E+02  0.31119142269E+02  0.11487486739E+04  0.11531157589E+04  0.47000000000E+01 0. -1.
         -5    1    4    4    0  501  0.11999047189E+02  0.21865237245E+02  0.49119800575E+02  0.55289334792E+02  0.47000000000E+01 0. -1.
          1    1    1    2  502    0 -0.79518111554E+01 -0.46161887116E+02  0.10627497707E+04  0.10637815688E+04  0.00000000000E+00 0. -1.
          1    1    1    2  503    0  0.15375935242E+02  0.91604691070E+02 -0.74823234084E+03  0.75397577858E+03  0.00000000000E+00 0. -1.
<mgrwt>
<rscale>  0 0.65934304E+02</rscale>
<asrwt>0</asrwt>
<pdfrwt beam="1">  1        2 0.41237485E+00 0.46841767E+02</pdfrwt>
<pdfrwt beam="2">  1        2 0.13422407E+00 0.92808892E+02</pdfrwt>
<totfact> 0.21251201E+01</totfact>
</mgrwt>
</event>
<event>
13    1  0.2101801E-008  0.1193649E+03  0.7546771E-02  0.1268177E+00
          2   -1    0    0  503    0  0.00000000000E+00  0.00000000000E+00  0.27390264043E+04  0.27390264043E+04  0.00000000000E+00 0. -1.
          2   -1    0    0  502    0 -0.00000000000E+00 -0.00000000000E+00 -0.11092691414E+04  0.11092691414E+04  0.00000000000E+00 0. -1.
         24    2    1    2    0    0  0.11308121044E+02  0.29624027990E+02 -0.19262909528E+03  0.21049089886E+03  0.78708281141E+02 0.  0.
         25    2    1    2    0    0  0.15634780122E+03 -0.12826895726E+03  0.78429110992E+03  0.81953305172E+03  0.12499726964E+03 0.  0.
         24    2    1    2    0    0  0.34272557073E+02  0.31309137012E+02  0.81353584756E+03  0.81913670594E+03  0.83603214805E+02 0.  0.
        -13    1    5    5    0    0  0.32474010977E+02  0.56638461539E+02  0.44953953724E+03  0.45425573443E+03  0.00000000000E+00 0.  1.
         14    1    5    5    0    0  0.17985460961E+01 -0.25329324527E+02  0.36399631031E+03  0.36488097151E+03  0.00000000000E+00 0. -1.
        -13    1    3    3    0    0  0.38766856588E+02  0.81230025313E+01 -0.50688658526E+02  0.64328783938E+02  0.00000000000E+00 0.  1.
         14    1    3    3    0    0 -0.27458735544E+02  0.21501025459E+02 -0.14194043675E+03  0.14616211492E+03  0.00000000000E+00 0. -1.
          5    1    4    4  501    0  0.84127154596E+02 -0.68420629075E+02  0.19827455960E+03  0.22603904886E+03  0.47000000000E+01 0. -1.
         -5    1    4    4    0  501  0.72220646620E+02 -0.59848328180E+02  0.58601655031E+03  0.59349400285E+03  0.47000000000E+01 0. -1.
          1    1    1    2  502    0 -0.11457444474E+03  0.10249823356E+03 -0.87860800515E+03  0.89195583858E+03  0.00000000000E+00 0. -1.
          1    1    1    2  503    0 -0.87354034593E+02 -0.35162441302E+02  0.11031674059E+04  0.11071790506E+04  0.00000000000E+00 0. -1.
<mgrwt>
<rscale>  0 0.10599226E+03</rscale>
<asrwt>0</asrwt>
<pdfrwt beam="1">  1        2 0.40279800E+00 0.94117800E+02</pdfrwt>
<pdfrwt beam="2">  1        2 0.16312781E+00 0.11936488E+03</pdfrwt>
<totfact> 0.15710404E+01</totfact>
</mgrwt>
</event>
<event>
13    1  0.2101801E-008  0.4847172E+02  0.7546771E-02  0.1567002E+00
          2   -1    0    0  502    0  0.00000000000E+00  0.00000000000E+00  0.17638418317E+04  0.17638418317E+04  0.00000000000E+00 0. -1.
          2   -1    0    0  503    0 -0.00000000000E+00 -0.00000000000E+00 -0.23729113649E+04  0.23729113649E+04  0.00000000000E+00 0. -1.
         24    2    1    2    0    0  0.15324657917E+03 -0.93082159900E-01 -0.47744530357E+03  0.50804442835E+03  0.81673744767E+02 0.  0.
         25    2    1    2    0    0 -0.15099409898E+03 -0.94748017374E+02  0.63125470762E+03  0.66774537180E+03  0.12499988377E+03 0.  0.
         24    2    1    2    0    0  0.22672548932E+02  0.28426789856E+02 -0.68162341813E+03  0.68743594874E+03  0.81459024172E+02 0.  0.
        -11    1    5    5    0    0 -0.11920684005E+02 -0.65468354731E+01 -0.21227994612E+02  0.25210940425E+02  0.00000000000E+00 0.  1.
         12    1    5    5    0    0  0.34593232936E+02  0.34973625329E+02 -0.66039542352E+03  0.66222500831E+03  0.00000000000E+00 0. -1.
        -13    1    3    3    0    0  0.78859960274E+02 -0.39844479894E+02 -0.27082230136E+03  0.28487048781E+03  0.00000000000E+00 0.  1.
         14    1    3    3    0    0  0.74386618898E+02  0.39751397734E+02 -0.20662300221E+03  0.22317394054E+03  0.00000000000E+00 0. -1.
          5    1    4    4  501    0 -0.34617864997E+02 -0.67683467841E+02  0.11580947496E+03  0.13861231145E+03  0.47000000000E+01 0. -1.
         -5    1    4    4    0  501 -0.11637623399E+03 -0.27064549533E+02  0.51544523266E+03  0.52913306035E+03  0.47000000000E+01 0. -1.
          1    1    1    2  502    0 -0.78893152686E+01  0.21052801797E+02  0.10955220457E+04  0.10957527159E+04  0.00000000000E+00 0. -1.
          1    1    1    2  503    0 -0.17035713852E+02  0.45361507882E+02 -0.11767775648E+04  0.11777747319E+04  0.00000000000E+00 0. -1.
<mgrwt>
<rscale>  0 0.33011580E+02</rscale>
<asrwt>0</asrwt>
<pdfrwt beam="1">  1        2 0.25938851E+00 0.22482477E+02</pdfrwt>
<pdfrwt beam="2">  1        2 0.34895755E+00 0.48471723E+02</pdfrwt>
<totfact> 0.14268889E+01</totfact>
</mgrwt>
</event>
<event>
13    1  0.2101801E-008  0.5597773E+02  0.7546771E-02  0.1483798E+00
          2   -1    0    0  502    0  0.00000000000E+00  0.00000000000E+00  0.11883103031E+04  0.11883103031E+04  0.00000000000E+00 0. -1.
          2   -1    0    0  503    0 -0.00000000000E+00 -0.00000000000E+00 -0.23636355418E+04  0.23636355418E+04  0.00000000000E+00 0. -1.
         24    2    1    2    0    0  0.12485849451E+03  0.50588607743E+02 -0.95509406638E+03  0.96800607183E+03  0.81744899408E+02 0.  0.
         25    2    1    2    0    0 -0.10640645212E+03 -0.12139993161E+03  0.39807764692E+03  0.44738135949E+03  0.12499596551E+03 0.  0.
         24    2    1    2    0    0  0.53371544964E+01  0.24303914969E+02 -0.22762551126E+03  0.24243070114E+03  0.79624782436E+02 0.  0.
        -11    1    3    3    0    0  0.39579291681E+02  0.13750779565E+02 -0.10815274308E+03  0.11598543057E+03  0.00000000000E+00 0.  1.
         12    1    3    3    0    0  0.85279202829E+02  0.36837828177E+02 -0.84694132330E+03  0.85202064126E+03  0.00000000000E+00 0. -1.
        -11    1    5    5    0    0  0.41685890929E+02  0.18303418985E+02 -0.10640775229E+03  0.11573823222E+03  0.00000000000E+00 0.  1.
         12    1    5    5    0    0 -0.36348736433E+02  0.60004959837E+01 -0.12121775897E+03  0.12669246892E+03  0.00000000000E+00 0. -1.
          5    1    4    4  501    0 -0.10093421497E+03 -0.25463950628E+02  0.16400414045E+03  0.19430794275E+03  0.47000000000E+01 0. -1.
         -5    1    4    4    0  501 -0.54722371536E+01 -0.95935980983E+02  0.23407350647E+03  0.25307341674E+03  0.47000000000E+01 0. -1.
          1    1    1    2  502    0  0.26243951883E+02  0.21355403712E+02  0.75065464214E+03  0.75141678851E+03  0.00000000000E+00 0. -1.
          1    1    1    2  503    0 -0.50033148765E+02  0.25152005188E+02 -0.11413379501E+04  0.11427109240E+04  0.00000000000E+00 0. -1.
<mgrwt>
<rscale>  0 0.43520098E+02</rscale>
<asrwt>0</asrwt>
<pdfrwt beam="1">  1        2 0.17475152E+00 0.33834868E+02</pdfrwt>
<pdfrwt beam="2">  1        2 0.34759346E+00 0.55977726E+02</pdfrwt>
<totfact> 0.25295938E+01</totfact>
</mgrwt>
</event>
<event>
13    1  0.2101801E-008  0.7745868E+02  0.7546771E-02  0.1339681E+00
          2   -1    0    0  502    0  0.00000000000E+00  0.00000000000E+00  0.10023624026E+04  0.10023624026E+04  0.00000000000E+00 0. -1.
          2   -1    0    0  503    0 -0.00000000000E+00 -0.00000000000E+00 -0.16685582345E+04  0.16685582345E+04  0.00000000000E+00 0. -1.
         24    2    1    2    0    0  0.14307365863E+03 -0.37572183851E+02 -0.44973140706E+03  0.48035601800E+03  0.81251613765E+02 0.  0.
         25    2    1    2    0    0 -0.72601590276E+02 -0.74727604136E+01  0.12827429386E+03  0.19340602362E+03  0.12499904979E+03 0.  0.
         24    2    1    2    0    0  0.14908085236E+02  0.27604617551E+01 -0.48607070359E+03  0.49238448886E+03  0.77122531210E+02 0.  0.
        -11    1    5    5    0    0 -0.14523557797E+02 -0.17428051294E+01 -0.17240782412E+02  0.22610079146E+02  0.00000000000E+00 0.  1.
         12    1    5    5    0    0  0.29431643033E+02  0.45032668846E+01 -0.46882992118E+03  0.46977440971E+03  0.00000000000E+00 0. -1.
        -13    1    3    3    0    0  0.16598174777E+02 -0.44660100801E+01 -0.67182248837E+01  0.18454787930E+02  0.00000000000E+00 0.  1.
         14    1    3    3    0    0  0.12647548385E+03 -0.33106173771E+02 -0.44301318218E+03  0.46190123007E+03  0.00000000000E+00 0. -1.
          5    1    4    4  501    0 -0.97224892583E+02  0.20215194381E+02  0.11873066881E+03  0.15485604779E+03  0.47000000000E+01 0.  1.
         -5    1    4    4    0  501  0.24623302307E+02 -0.27687954794E+02  0.95436250520E+01  0.38549975828E+02  0.47000000000E+01 0.  1.
          1    1    1    2  502    0 -0.17768946211E+02  0.75424754950E+02  0.81913980151E+03  0.82279684219E+03  0.00000000000E+00 0. -1.
          1    1    1    2  503    0 -0.67611207374E+02 -0.33140272441E+02 -0.67780781662E+03  0.68197726450E+03  0.00000000000E+00 0. -1.
<mgrwt>
<rscale>  0 0.76369903E+02</rscale>
<asrwt>0</asrwt>
<pdfrwt beam="1">  1        2 0.14740624E+00 0.77458676E+02</pdfrwt>
<pdfrwt beam="2">  1        2 0.24537621E+00 0.75296434E+02</pdfrwt>
<totfact> 0.62655456E+01</totfact>
</mgrwt>
</event>
<event>
13    1  0.2101801E-008  0.1447945E+03  0.7546771E-02  0.1293329E+00
          2   -1    0    0  502    0  0.00000000000E+00  0.00000000000E+00  0.64693588493E+03  0.64693588493E+03  0.00000000000E+00 0. -1.
          2   -1    0    0  503    0 -0.00000000000E+00 -0.00000000000E+00 -0.25649878759E+04  0.25649878759E+04  0.00000000000E+00 0. -1.
         24    2    1    2    0    0  0.84403499988E+01  0.66932725370E+02 -0.22245229018E+03  0.24573674612E+03  0.79688755503E+02 0.  0.
         25    2    1    2    0    0 -0.23340264950E+03  0.11244384868E+02  0.25132040768E+03  0.36522593656E+03  0.12499921776E+03 0.  0.
         24    2    1    2    0    0  0.12075869831E+02  0.13353263389E+02 -0.10405975245E+03  0.13345870231E+03  0.81600593546E+02 0.  0.
        -11    1    5    5    0    0 -0.10342224950E+02 -0.25467801386E+02 -0.99782651286E+01  0.29242713611E+02  0.00000000000E+00 0.  1.
         12    1    5    5    0    0  0.22418094781E+02  0.38821064775E+02 -0.94081487321E+02  0.10421598870E+03  0.00000000000E+00 0. -1.
        -13    1    3    3    0    0  0.33625523742E+02  0.26179415195E+01 -0.94401245580E+02  0.10024532224E+03  0.00000000000E+00 0.  1.
         14    1    3    3    0    0 -0.25185173743E+02  0.64314783851E+02 -0.12805104460E+03  0.14549142388E+03  0.00000000000E+00 0. -1.
          5    1    4    4  501    0  0.11500589137E+02 -0.13874905334E+02  0.20923321242E+02  0.28011639015E+02  0.47000000000E+01 0. -1.
         -5    1    4    4    0  501 -0.24490323863E+03  0.25119290202E+02  0.23039708643E+03  0.33721429755E+03  0.47000000000E+01 0. -1.
          1    1    1    2  502    0 -0.28872917643E+02 -0.53836134250E+02  0.30231111587E+03  0.30842176561E+03  0.00000000000E+00 0. -1.
          1    1    1    2  503    0  0.24175934731E+03 -0.37694239377E+02 -0.21451714719E+04  0.21590806102E+04  0.00000000000E+00 0. -1.
<mgrwt>
<rscale>  0 0.94050398E+02</rscale>
<asrwt>0</asrwt>
<pdfrwt beam="1">  1        2 0.95137631E-01 0.61089891E+02</pdfrwt>
<pdfrwt beam="2">  1        2 0.37720410E+00 0.14479445E+03</pdfrwt>
<totfact> 0.36325395E+01</totfact>
</mgrwt>
</event>
<event>
13    1  0.2101801E-008  0.9473901E+02  0.7546771E-02  0.1312396E+00
          2   -1    0    0  502    0  0.00000000000E+00  0.00000000000E+00  0.12383134636E+04  0.12383134636E+04  0.00000000000E+00 0. -1.
          2   -1    0    0  503    0 -0.00000000000E+00 -0.00000000000E+00 -0.20811285578E+04  0.20811285578E+04  0.00000000000E+00 0. -1.
         24    2    1    2    0    0  0.18202269115E+02  0.39798106901E+02 -0.43767525937E+03  0.44920831429E+03  0.91177108129E+02 0.  0.
         25    2    1    2    0    0 -0.13448457383E+03 -0.73091991905E+01 -0.57623657246E+03  0.60482722368E+03  0.12501143179E+03 0.  0.
         24    2    1    2    0    0  0.16785592994E+03 -0.19537806774E+03 -0.12520809837E+03  0.29589575749E+03  0.74357439674E+02 0.  0.
        -13    1    3    3    0    0  0.11045962915E+02 -0.29278489849E+02 -0.15501230419E+03  0.15813936169E+03  0.00000000000E+00 0.  1.
         14    1    3    3    0    0  0.71563062004E+01  0.69076596749E+02 -0.28266295518E+03  0.29106895260E+03  0.00000000000E+00 0. -1.
        -13    1    5    5    0    0  0.74083977326E+02 -0.11586114243E+03 -0.10090332228E+03  0.17056881447E+03  0.00000000000E+00 0.  1.
         14    1    5    5    0    0  0.93771952611E+02 -0.79516925308E+02 -0.24304776093E+02  0.12532694302E+03  0.00000000000E+00 0. -1.
          5    1    4    4  501    0 -0.74516255939E+02  0.30695793324E+02 -0.47052725281E+03  0.47740223058E+03  0.47000000000E+01 0.  1.
         -5    1    4    4    0  501 -0.59968317887E+02 -0.38004992515E+02 -0.10570931965E+03  0.12742499310E+03  0.47000000000E+01 0.  1.
          1    1    1    2  502    0 -0.18017281765E+02  0.76280428616E+02  0.11289668204E+04  0.11316843234E+04  0.00000000000E+00 0. -1.
          1    1    1    2  503    0 -0.33556343460E+02  0.86608731413E+02 -0.83266198444E+03  0.83782640259E+03  0.00000000000E+00 0. -1.
<mgrwt>
<rscale>  0 0.86171828E+02</rscale>
<asrwt>0</asrwt>
<pdfrwt beam="1">  1        2 0.18210492E+00 0.78379374E+02</pdfrwt>
<pdfrwt beam="2">  1        2 0.30604832E+00 0.94739007E+02</pdfrwt>
<totfact> 0.28970458E+01</totfact>
</mgrwt>
</event>
<event>
13    1  0.2101801E-008  0.1323260E+03  0.7546771E-02  0.1323856E+00
          2   -1    0    0  503    0  0.00000000000E+00  0.00000000000E+00  0.44720283438E+04  0.44720283438E+04  0.00000000000E+00 0. -1.
         -1   -1    0    0    0  501 -0.00000000000E+00 -0.00000000000E+00 -0.97661078343E+03  0.97661078343E+03  0.00000000000E+00 0.  1.
         24    2    1    2    0    0  0.84438068098E+02 -0.35562137514E+03  0.52371392918E+03  0.64371493482E+03  0.80599552705E+02 0.  0.
         25    2    1    2    0    0  0.55256922670E+02  0.79709044699E+03 -0.49895495015E+02  0.81026680343E+03  0.12504488852E+03 0.  0.
         24    2    1    2    0    0 -0.12229166028E+03 -0.32618528300E+03  0.32865891992E+04  0.33060835286E+04  0.84661941521E+02 0.  0.
        -13    1    3    3    0    0 -0.15504410179E+02 -0.50176339300E+02  0.84203383323E+02  0.99238407503E+02  0.00000000000E+00 0.  1.
         14    1    3    3    0    0  0.99942478278E+02 -0.30544503584E+03  0.43951054586E+03  0.54447652732E+03  0.00000000000E+00 0. -1.
        -13    1    5    5    0    0 -0.48408852248E+02 -0.67779564327E+02  0.10754377912E+04  0.10786583931E+04  0.00000000000E+00 0.  1.
         14    1    5    5    0    0 -0.73882808032E+02 -0.25840571867E+03  0.22111514080E+04  0.22274251354E+04  0.00000000000E+00 0. -1.
          5    1    4    4  502    0 -0.32489200180E+02  0.40343871175E+03 -0.40814273904E+02  0.40682457794E+03  0.47000000000E+01 0. -1.
         -5    1    4    4    0  502  0.87746122850E+02  0.39365173524E+03 -0.90812211106E+01  0.40344222549E+03  0.47000000000E+01 0. -1.
          1    1    1    2  503    0 -0.68039675436E+02 -0.11467494478E+03  0.18925726686E+03  0.23151253412E+03  0.00000000000E+00 0. -1.
         -2    1    1    2    0  501  0.50636344948E+02 -0.60884406742E+00 -0.45424733993E+03  0.45706132625E+03  0.00000000000E+00 0.  1.
<mgrwt>
<rscale>  0 0.81859572E+02</rscale>
<asrwt>0</asrwt>
<pdfrwt beam="1">  1        2 0.65765122E+00 0.13232600E+03</pdfrwt>
<pdfrwt beam="2">  1       -1 0.14361923E+00 0.50640005E+02</pdfrwt>
<totfact> 0.17151813E-01</totfact>
</mgrwt>
</event>
<event>
13    1  0.2101801E-008  0.1453399E+03  0.7546771E-02  0.1388640E+00
          2   -1    0    0  503    0  0.00000000000E+00  0.00000000000E+00  0.19624923822E+04  0.19624923822E+04  0.00000000000E+00 0. -1.
          2   -1    0    0  502    0 -0.00000000000E+00 -0.00000000000E+00 -0.85649228015E+03  0.85649228015E+03  0.00000000000E+00 0. -1.
         24    2    1    2    0    0 -0.49026221501E+02 -0.15474427962E+03 -0.17236229854E+03  0.25000157673E+03  0.80266206721E+02 0.  0.
         25    2    1    2    0    0  0.15443263072E+03  0.17434530235E+03  0.93321399326E+03  0.96992696524E+03  0.12499695517E+03 0.  0.
         24    2    1    2    0    0  0.21114545988E+02 -0.58474245293E+02  0.56816308410E+02  0.12538245136E+03  0.92884900775E+02 0.  0.
        -11    1    5    5    0    0  0.37856589081E+02 -0.61062179318E+02  0.72663697464E+02  0.10218475429E+03  0.00000000000E+00 0.  1.
         12    1    5    5    0    0 -0.16742043093E+02  0.25879340245E+01 -0.15847389054E+02  0.23197697068E+02  0.00000000000E+00 0. -1.
        -13    1    3    3    0    0  0.19683908666E+02 -0.17011056048E+02 -0.15742882169E+02  0.30408397314E+02  0.00000000000E+00 0.  1.
         14    1    3    3    0    0 -0.68710130167E+02 -0.13773322357E+03 -0.15661941637E+03  0.21959317942E+03  0.00000000000E+00 0. -1.
          5    1    4    4  501    0 -0.60461875945E+01 -0.81182111180E+00  0.83150304422E+00  0.77457624065E+01  0.47000000000E+01 0. -1.
         -5    1    4    4    0  501  0.16047881831E+03  0.17515712346E+03  0.93238249021E+03  0.96218120283E+03  0.47000000000E+01 0. -1.
          1    1    1    2  502    0 -0.13048206588E+03  0.65236184653E+02 -0.58348707232E+03  0.60144699922E+03  0.00000000000E+00 0. -1.
          1    1    1    2  503    0  0.39611106714E+01 -0.26362962087E+02  0.87181917120E+03  0.87222666976E+03  0.00000000000E+00 0. -1.
<mgrwt>
<rscale>  0 0.62246292E+02</rscale>
<asrwt>0</asrwt>
<pdfrwt beam="1">  1        2 0.28860182E+00 0.26658885E+02</pdfrwt>
<pdfrwt beam="2">  1        2 0.12595475E+00 0.14533994E+03</pdfrwt>
<totfact> 0.60761272E+01</totfact>
</mgrwt>
</event>
<event>
13    1  0.2101801E-008  0.1834663E+03  0.7546771E-02  0.1306569E+00
          2   -1    0    0  503    0  0.00000000000E+00  0.00000000000E+00  0.10234764515E+04  0.10234764515E+04  0.00000000000E+00 0. -1.
          2   -1    0    0  502    0 -0.00000000000E+00 -0.00000000000E+00 -0.16330981764E+04  0.16330981764E+04  0.00000000000E+00 0. -1.
         24    2    1    2    0    0 -0.54543158265E+02  0.10996784924E+03  0.77552770165E+02  0.16937249073E+03  0.87205071381E+02 0.  0.
         25    2    1    2    0    0  0.13487462861E+02 -0.68462739959E+02  0.16756261806E+03  0.22038293454E+03  0.12498939335E+03 0.  0.
         24    2    1    2    0    0 -0.10459087318E+03 -0.81472002641E+02  0.14701926379E+00  0.15510669615E+03  0.80505450817E+02 0.  0.
        -11    1    5    5    0    0 -0.14086916884E+02 -0.58775177084E+02 -0.99579009839E+01  0.61254570936E+02  0.00000000000E+00 0.  1.
         12    1    5    5    0    0 -0.90503956291E+02 -0.22696825557E+02  0.10104920248E+02  0.93852125218E+02  0.00000000000E+00 0. -1.
        -13    1    3    3    0    0 -0.30719797488E+02  0.53621702010E+02  0.87776551352E+02  0.10734857172E+03  0.00000000000E+00 0.  1.
         14    1    3    3    0    0 -0.23823360777E+02  0.56346147233E+02 -0.10223781187E+02  0.62023919003E+02  0.00000000000E+00 0. -1.
          5    1    4    4  501    0 -0.16163630844E+02 -0.95293733883E+02  0.86163873711E+02  0.12957029680E+03  0.47000000000E+01 0. -1.
         -5    1    4    4    0  501  0.29651093705E+02  0.26830993924E+02  0.81398744348E+02  0.90812637745E+02  0.47000000000E+01 0. -1.
          1    1    1    2  502    0  0.18658147899E+03  0.27910681719E+02 -0.14765651890E+04  0.14885685782E+04  0.00000000000E+00 0. -1.
          1    1    1    2  503    0 -0.40934910408E+02  0.12056211638E+02  0.62168105668E+03  0.62314392829E+03  0.00000000000E+00 0. -1.
<mgrwt>
<rscale>  0 0.88482374E+02</rscale>
<asrwt>0</asrwt>
<pdfrwt beam="1">  1        2 0.15051124E+00 0.42673401E+02</pdfrwt>
<pdfrwt beam="2">  1        2 0.24016150E+00 0.18346629E+03</pdfrwt>
<totfact> 0.60695394E+01</totfact>
</mgrwt>
</event>
<event>
13    1  0.2101801E-008  0.2059147E+03  0.7546771E-02  0.1300408E+00
          2   -1    0    0  502    0  0.00000000000E+00  0.00000000000E+00  0.39764701451E+04  0.39764701451E+04  0.00000000000E+00 0. -1.
          2   -1    0    0  503    0 -0.00000000000E+00 -0.00000000000E+00 -0.29718872797E+04  0.29718872797E+04  0.00000000000E+00 0. -1.
         24    2    1    2    0    0  0.13557787572E+04  0.15434439839E+03 -0.76384376793E+03  0.15656746287E+04  0.76951344133E+02 0.  0.
         25    2    1    2    0    0 -0.67980421250E+03  0.26043845212E+03  0.38870401472E+03  0.83467248479E+03  0.12500156452E+03 0.  0.
         24    2    1    2    0    0 -0.43299812905E+03 -0.44955528701E+03  0.14079636810E+04  0.15422896419E+04  0.81904069392E+02 0.  0.
        -11    1    5    5    0    0 -0.32460912198E+03 -0.38335277590E+03  0.11084610240E+04  0.12169701206E+04  0.00000000000E+00 0.  1.
         12    1    5    5    0    0 -0.10838900707E+03 -0.66202511114E+02  0.29950265708E+03  0.32531952129E+03  0.00000000000E+00 0. -1.
        -13    1    3    3    0    0  0.28326243507E+03  0.20291089210E+02 -0.12642162294E+03  0.31085649771E+03  0.00000000000E+00 0.  1.
         14    1    3    3    0    0  0.10725163222E+04  0.13405330918E+03 -0.63742214498E+03  0.12548181310E+04  0.00000000000E+00 0. -1.
          5    1    4    4  501    0 -0.54265547154E+03  0.16398984907E+03  0.33528339914E+03  0.65863850414E+03  0.47000000000E+01 0. -1.
         -5    1    4    4    0  501 -0.13714874096E+03  0.96448603045E+02  0.53420615578E+02  0.17603398066E+03  0.47000000000E+01 0. -1.
          1    1    1    2  502    0 -0.40226833789E+02 -0.55331207187E+00  0.14814852781E+04  0.14820314213E+04  0.00000000000E+00 0. -1.
          1    1    1    2  503    0 -0.20274958190E+03  0.35325748572E+02 -0.15097263406E+04  0.15236892482E+04  0.00000000000E+00 0. -1.
<mgrwt>
<rscale>  0 0.91016916E+02</rscale>
<asrwt>0</asrwt>
<pdfrwt beam="1">  1        2 0.58477502E+00 0.40230639E+02</pdfrwt>
<pdfrwt beam="2">  1        2 0.43704225E+00 0.20591468E+03</pdfrwt>
<totfact> 0.39247075E-01</totfact>
</mgrwt>
</event>
<event>
13    1  0.2101801E-008  0.8949705E+02  0.7546771E-02  0.1336292E+00
          2   -1    0    0  502    0  0.00000000000E+00  0.00000000000E+00  0.20478020915E+04  0.20478020915E+04  0.00000000000E+00 0. -1.
          2   -1    0    0  503    0 -0.00000000000E+00 -0.00000000000E+00 -0.64466890268E+03  0.64466890268E+03  0.00000000000E+00 0. -1.
         24    2    1    2    0    0  0.54459983785E+02 -0.14775723043E+03  0.42105152822E+03  0.45693582987E+03  0.81901613033E+02 0.  0.
         25    2    1    2    0    0 -0.92505678960E+02  0.27469102281E+03  0.61135728964E+01  0.31571781271E+03  0.12501161080E+03 0.  0.
         24    2    1    2    0    0  0.48860333828E+01 -0.58104340086E+02  0.91574942120E+03  0.92119681815E+03  0.81280918336E+02 0.  0.
        -11    1    3    3    0    0 -0.11458518420E+02 -0.71768683896E+01  0.81053398614E+01  0.15763934107E+02  0.00000000000E+00 0.  1.
         12    1    3    3    0    0  0.65918502205E+02 -0.14058036205E+03  0.41294618836E+03  0.44117189576E+03  0.00000000000E+00 0. -1.
        -13    1    5    5    0    0  0.24164026934E+02 -0.20653514620E+02  0.11420459521E+03  0.11854601398E+03  0.00000000000E+00 0.  1.
         14    1    5    5    0    0 -0.19277993551E+02 -0.37450825466E+02  0.80154482600E+03  0.80265080418E+03  0.00000000000E+00 0. -1.
          5    1    4    4  501    0 -0.40698915175E+02  0.23597527968E+03 -0.30191708973E+02  0.24140083597E+03  0.47000000000E+01 0. -1.
         -5    1    4    4    0  501 -0.51806763785E+02  0.38715743135E+02  0.36305281869E+02  0.74316976741E+02  0.47000000000E+01 0. -1.
          1    1    1    2  502    0 -0.32125909425E+02 -0.84396190287E+02  0.52313104015E+03  0.53086804025E+03  0.00000000000E+00 0. -1.
          1    1    1    2  503    0  0.65285571218E+02  0.15566737994E+02 -0.46291237369E+03  0.46775249316E+03  0.00000000000E+00 0. -1.
<mgrwt>
<rscale>  0 0.77502680E+02</rscale>
<asrwt>0</asrwt>
<pdfrwt beam="1">  1        2 0.30114737E+00 0.89497054E+02</pdfrwt>
<pdfrwt beam="2">  1        2 0.94804251E-01 0.67115789E+02</pdfrwt>
<totfact> 0.69193200E+01</totfact>
</mgrwt>
</event>
<event>
13    1  0.2101801E-008  0.9877052E+02  0.7546771E-02  0.1346618E+00
          2   -1    0    0  502    0  0.00000000000E+00  0.00000000000E+00  0.59589562438E+03  0.59589562438E+03  0.00000000000E+00 0. -1.
          2   -1    0    0  503    0 -0.00000000000E+00 -0.00000000000E+00 -0.29186569239E+04  0.29186569239E+04  0.00000000000E+00 0. -1.
         24    2    1    2    0    0  0.29862602092E+03  0.85235719021E+02 -0.22671322479E+04  0.22896420751E+04  0.78291598686E+02 0.  0.
         25    2    1    2    0    0 -0.22394869777E+03 -0.70432549368E+02  0.30099066509E+03  0.40166219497E+03  0.12499350045E+03 0.  0.
         24    2    1    2    0    0 -0.46973518684E+00 -0.16923223712E+02 -0.20679543722E+03  0.22254711001E+03  0.80475133859E+02 0.  0.
        -11    1    3    3    0    0  0.20045542844E+03  0.74125730177E+02 -0.12968380184E+04  0.13143309509E+04  0.00000000000E+00 0.  1.
         12    1    3    3    0    0  0.98170592473E+02  0.11109988844E+02 -0.97029422948E+03  0.97531112412E+03  0.00000000000E+00 0. -1.
        -11    1    5    5    0    0  0.37852205584E+01  0.29477825838E+02 -0.43131078575E+02  0.52379003902E+02  0.00000000000E+00 0.  1.
         12    1    5    5    0    0 -0.42549557452E+01 -0.46401049550E+02 -0.16366435864E+03  0.17016810611E+03  0.00000000000E+00 0. -1.
          5    1    4    4  501    0 -0.23353168265E+03 -0.84099241518E+02  0.28620646512E+03  0.37887459654E+03  0.47000000000E+01 0. -1.
         -5    1    4    4    0  501  0.95829848799E+01  0.13666692150E+02  0.14784199968E+02  0.22787598431E+02  0.47000000000E+01 0. -1.
          1    1    1    2  502    0  0.38733053080E+02 -0.39918846556E+02  0.21208373993E+03  0.21925618909E+03  0.00000000000E+00 0. -1.
          1    1    1    2  503    0 -0.11294064104E+03  0.42038900615E+02 -0.36190801944E+03  0.38144497912E+03  0.00000000000E+00 0. -1.
<mgrwt>
<rscale>  0 0.74120006E+02</rscale>
<asrwt>0</asrwt>
<pdfrwt beam="1">  1        2 0.87631711E-01 0.55621612E+02</pdfrwt>
<pdfrwt beam="2">  1        2 0.42921425E+00 0.98770517E+02</pdfrwt>
<totfact> 0.27569846E+01</totfact>
</mgrwt>
</event>
<event>
13    1  0.2101801E-008  0.7583883E+02  0.7546771E-02  0.1383672E+00
          2   -1    0    0  503    0  0.00000000000E+00  0.00000000000E+00  0.17561570301E+04  0.17561570301E+04  0.00000000000E+00 0. -1.
          2   -1    0    0  502    0 -0.00000000000E+00 -0.00000000000E+00 -0.43665072307E+03  0.43665072307E+03  0.00000000000E+00 0. -1.
         24    2    1    2    0    0 -0.27401225799E+02  0.44338154267E+02 -0.19091345117E+03  0.21397060128E+03  0.81355843513E+02 0.  0.
         25    2    1    2    0    0  0.59250354775E+02 -0.51780293069E+02  0.90968438114E+03  0.92159776433E+03  0.12499985055E+03 0.  0.
         24    2    1    2    0    0  0.70574027430E+02 -0.35862693443E+02  0.55105089181E+02  0.12464713845E+03  0.78952594273E+02 0.  0.
        -11    1    3    3    0    0 -0.25247595319E+02 -0.20019906458E+02 -0.64643316069E+02  0.72228775681E+02  0.00000000000E+00 0.  1.
         12    1    3    3    0    0 -0.21536304802E+01  0.64358060726E+02 -0.12627013510E+03  0.14174182560E+03  0.00000000000E+00 0. -1.
        -11    1    5    5    0    0  0.58113620698E+02  0.91485649963E+01  0.99144365719E+01  0.59658907170E+02  0.00000000000E+00 0.  1.
         12    1    5    5    0    0  0.12460406732E+02 -0.45011258440E+02  0.45190652609E+02  0.64988231284E+02  0.00000000000E+00 0. -1.
          5    1    4    4  501    0  0.39361434398E+02 -0.70860586396E+02  0.28641279982E+03  0.29769939053E+03  0.47000000000E+01 0. -1.
         -5    1    4    4    0  501  0.19888920377E+02  0.19080293327E+02  0.62327158131E+03  0.62389837379E+03  0.47000000000E+01 0. -1.
          1    1    1    2  502    0 -0.50794701146E+02  0.56067889500E+02 -0.18508174815E+03  0.19994740157E+03  0.00000000000E+00 0. -1.
          1    1    1    2  503    0 -0.51628455260E+02 -0.12763057255E+02  0.73071203607E+03  0.73264484757E+03  0.00000000000E+00 0. -1.
<mgrwt>
<rscale>  0 0.63508339E+02</rscale>
<asrwt>0</asrwt>
<pdfrwt beam="1">  1        2 0.25825839E+00 0.53182638E+02</pdfrwt>
<pdfrwt beam="2">  1        2 0.64213342E-01 0.75838830E+02</pdfrwt>
<totfact> 0.15217660E+02</totfact>
</mgrwt>
</event>
<event>
13    1  0.2101801E-008  0.1378672E+03  0.7546771E-02  0.1293107E+00
          2   -1    0    0  502    0  0.00000000000E+00  0.00000000000E+00  0.12867333184E+04  0.12867333184E+04  0.00000000000E+00 0. -1.
          2   -1    0    0  503    0 -0.00000000000E+00 -0.00000000000E+00 -0.23539733524E+04  0.23539733524E+04  0.00000000000E+00 0. -1.
         24    2    1    2    0    0  0.14754240194E+02 -0.30765843695E+02 -0.15315142320E+03  0.17794952420E+03  0.83943135468E+02 0.  0.
         25    2    1    2    0    0  0.16140727230E+03  0.63072657519E+02  0.55332918825E+03  0.59315184014E+03  0.12500178887E+03 0.  0.
         24    2    1    2    0    0  0.86526621973E+01  0.20784262823E+02  0.19877103973E+02  0.88123136992E+02  0.82847654564E+02 0.  0.
        -11    1    3    3    0    0  0.87653633748E+01  0.18618175811E+02 -0.11056820456E+03  0.11246686590E+03  0.00000000000E+00 0.  1.
         12    1    3    3    0    0  0.59888768195E+01 -0.49384019506E+02 -0.42583218640E+02  0.65482658298E+02  0.00000000000E+00 0. -1.
        -13    1    5    5    0    0 -0.20526630466E+02 -0.11689442142E+02 -0.18493719343E+02  0.30000054517E+02  0.00000000000E+00 0.  1.
         14    1    5    5    0    0  0.29179292663E+02  0.32473704964E+02  0.38370823317E+02  0.58123082475E+02  0.00000000000E+00 0. -1.
          5    1    4    4  501    0  0.66528012366E+02  0.86503975569E+02  0.36399423454E+03  0.38003000802E+03  0.47000000000E+01 0.  1.
         -5    1    4    4    0  501  0.94879259930E+02 -0.23431318050E+02  0.18933495370E+03  0.21312183212E+03  0.47000000000E+01 0.  1.
          1    1    1    2  502    0  0.37373099420E+02 -0.52313742612E+02  0.63969548797E+03  0.64291818574E+03  0.00000000000E+00 0. -1.
          1    1    1    2  503    0 -0.22218727411E+03 -0.77733403431E+00 -0.21269903910E+04  0.21385639837E+04  0.00000000000E+00 0. -1.
<mgrwt>
<rscale>  0 0.94147614E+02</rscale>
<asrwt>0</asrwt>
<pdfrwt beam="1">  1        2 0.18922549E+00 0.64292116E+02</pdfrwt>
<pdfrwt beam="2">  1        2 0.34617255E+00 0.13786719E+03</pdfrwt>
<totfact> 0.19545015E+01</totfact>
</mgrwt>
</event>
<event>
13    1  0.2101801E-008  0.9825630E+02  0.7546771E-02  0.1389971E+00
         -3   -1    0    0    0  501 -0.00000000000E+00  0.00000000000E+00  0.56381717232E+03  0.56381717232E+03  0.00000000000E+00 0.  1.
          4   -1    0    0  503    0  0.00000000000E+00 -0.00000000000E+00 -0.74398563395E+03  0.74398563395E+03  0.00000000000E+00 0. -1.
         24    2    1    2    0    0  0.53840478827E+01  0.51008285291E+02  0.17297997700E+03  0.20345376022E+03  0.94024076507E+02 0.  0.
         25    2    1    2    0    0 -0.40678480101E+02  0.18010453548E+03 -0.12986679124E+03  0.25804264721E+03  0.12501296679E+03 0.  0.
         24    2    1    2    0    0 -0.51856171172E+02 -0.12393663726E+03  0.85869689624E+02  0.17425032685E+03  0.70286700515E+02 0.  0.
        -11    1    5    5    0    0  0.49097253701E+01 -0.78700916057E+02  0.40422398582E+02  0.88611003259E+02  0.00000000000E+00 0.  1.
         12    1    5    5    0    0 -0.56765896542E+02 -0.45235721200E+02  0.45447291041E+02  0.85639323595E+02  0.00000000000E+00 0. -1.
        -11    1    3    3    0    0  0.19357047067E+02 -0.23749068775E+02  0.41866271292E+02  0.51879651220E+02  0.00000000000E+00 0.  1.
         12    1    3    3    0    0 -0.13972999184E+02  0.74757354066E+02  0.13111370571E+03  0.15157410900E+03  0.00000000000E+00 0. -1.
          5    1    4    4  502    0  0.12516062886E+02  0.14274875634E+03 -0.43462257998E+02  0.14981627794E+03  0.47000000000E+01 0. -1.
         -5    1    4    4    0  502 -0.53194542986E+02  0.37355779143E+02 -0.86404533245E+02  0.10822636926E+03  0.47000000000E+01 0. -1.
          3    1    1    2  503    0  0.37096352816E+02 -0.12079714359E+02 -0.47381979938E+03  0.47542324425E+03  0.00000000000E+00 0. -1.
         -4    1    1    2    0  501  0.50054250575E+02 -0.95096469153E+02  0.16466846238E+03  0.19663282775E+03  0.00000000000E+00 0.  1.
<mgrwt>
<rscale>  0 0.61913886E+02</rscale>
<asrwt>0</asrwt>
<pdfrwt beam="2">  1        4 0.10940965E+00 0.39013573E+02</pdfrwt>
<pdfrwt beam="1">  1       -3 0.82914290E-01 0.98256297E+02</pdfrwt>
<totfact> 0.18244483E+00</totfact>
</mgrwt>
</event>
<event>
13    1  0.2101801E-008  0.8335928E+02  0.7546771E-02  0.1460398E+00
         -1   -1    0    0    0  501 -0.00000000000E+00  0.00000000000E+00  0.13126428063E+03  0.13126428063E+03  0.00000000000E+00 0.  1.
          2   -1    0    0  503    0  0.00000000000E+00 -0.00000000000E+00 -0.15715927279E+04  0.15715927279E+04  0.00000000000E+00 0. -1.
         24    2    1    2    0    0 -0.22861972132E+03  0.50829426165E+02 -0.32151551297E+03  0.40985521467E+03  0.98784939995E+02 0.  0.
         25    2    1    2    0    0  0.25882072457E+03 -0.67702425026E+02 -0.48833429491E+03  0.57067159828E+03  0.12499561466E+03 0.  0.
         24    2    1    2    0    0  0.49310272325E+02  0.10041514461E+02 -0.37211431528E+03  0.38429491026E+03  0.81738482037E+02 0.  0.
        -13    1    3    3    0    0 -0.56677670993E+02  0.56416167122E+02 -0.78064697773E+02  0.11175526538E+03  0.00000000000E+00 0.  1.
         14    1    3    3    0    0 -0.17194205033E+03 -0.55867409568E+01 -0.24345081520E+03  0.29809994929E+03  0.00000000000E+00 0. -1.
        -13    1    5    5    0    0  0.66019535432E+02 -0.13235030556E+02 -0.26180092436E+03  0.27032104818E+03  0.00000000000E+00 0.  1.
         14    1    5    5    0    0 -0.16709263106E+02  0.23276545017E+02 -0.11031339092E+03  0.11397386208E+03  0.00000000000E+00 0. -1.
          5    1    4    4  502    0  0.13428749514E+03 -0.73832729754E+02 -0.36190289117E+03  0.39303968752E+03  0.47000000000E+01 0.  1.
         -5    1    4    4    0  502  0.12453322943E+03  0.61303047280E+01 -0.12643140374E+03  0.17763191076E+03  0.47000000000E+01 0.  1.
          1    1    1    2  503    0 -0.76847079851E+02  0.33552934482E+02 -0.28686923293E+03  0.29887326728E+03  0.00000000000E+00 0. -1.
         -2    1    1    2    0  501 -0.26641957214E+01 -0.26721450083E+02  0.28504908798E+02  0.39162018065E+02  0.00000000000E+00 0.  1.
<mgrwt>
<rscale>  0 0.47313051E+02</rscale>
<asrwt>0</asrwt>
<pdfrwt beam="2">  1        2 0.23111657E+00 0.83359284E+02</pdfrwt>
<pdfrwt beam="1">  1       -1 0.19303571E-01 0.26853935E+02</pdfrwt>
<totfact> 0.33229740E+02</totfact>
</mgrwt>
</event>
<event>
13    1  0.2101801E-008  0.9637840E+02  0.7546771E-02  0.1449901E+00
         -1   -1    0    0    0  501 -0.00000000000E+00  0.00000000000E+00  0.26855232454E+03  0.26855232454E+03  0.00000000000E+00 0.  1.
          2   -1    0    0  503    0  0.00000000000E+00 -0.00000000000E+00 -0.25763303622E+04  0.25763303622E+04  0.00000000000E+00 0. -1.
         24    2    1    2    0    0 -0.36534347399E+02 -0.95167714020E+01  0.33430863408E+02  0.94477353763E+02  0.79893806194E+02 0.  0.
         25    2    1    2    0    0  0.10750049838E+02  0.13437528124E+03 -0.20705150718E+03  0.27688801712E+03  0.12499747046E+03 0.  0.
         24    2    1    2    0    0 -0.51542360876E+02 -0.48191939401E+02 -0.11133653578E+04  0.11184514324E+04  0.79825488130E+02 0.  0.
        -11    1    5    5    0    0  0.91029709956E+01  0.57476946284E+01 -0.45149529904E+03  0.45162363216E+03  0.00000000000E+00 0.  1.
         12    1    5    5    0    0 -0.60645331872E+02 -0.53939634029E+02 -0.66187005879E+03  0.66682780020E+03  0.00000000000E+00 0. -1.
        -13    1    3    3    0    0  0.17339399014E+02 -0.25954738654E+02  0.58339703127E+01  0.31754344999E+02  0.00000000000E+00 0.  1.
         14    1    3    3    0    0 -0.53873746413E+02  0.16437967252E+02  0.27596893095E+02  0.62723008764E+02  0.00000000000E+00 0. -1.
          5    1    4    4  502    0 -0.32365593447E+02  0.11418612137E+03 -0.19370429278E+03  0.22722113677E+03  0.47000000000E+01 0. -1.
         -5    1    4    4    0  502  0.43115643285E+02  0.20189159868E+02 -0.13347214399E+02  0.49666880356E+02  0.47000000000E+01 0. -1.
          1    1    1    2  503    0 -0.23993058015E+02 -0.73023001194E+01 -0.11652238042E+04  0.11654936741E+04  0.00000000000E+00 0. -1.
         -2    1    1    2    0  501  0.10131971645E+03 -0.69364270313E+02  0.14443176813E+03  0.18957220942E+03  0.00000000000E+00 0.  1.
<mgrwt>
<rscale>  0 0.49164415E+02</rscale>
<asrwt>0</asrwt>
<pdfrwt beam="2">  1        2 0.37887212E+00 0.25079681E+02</pdfrwt>
<pdfrwt beam="1">  1       -1 0.39492988E-01 0.96378405E+02</pdfrwt>
<totfact> 0.42416167E+01</totfact>
</mgrwt>
</event>
<event>
13    1  0.2101801E-008  0.1412001E+03  0.7546771E-02  0.1348222E+00
          2   -1    0    0  502    0  0.00000000000E+00  0.00000000000E+00  0.15449120361E+04  0.15449120361E+04  0.00000000000E+00 0. -1.
          2   -1    0    0  503    0 -0.00000000000E+00 -0.00000000000E+00 -0.22781927972E+04  0.22781927972E+04  0.00000000000E+00 0. -1.
         24    2    1    2    0    0 -0.56586793009E+02 -0.47880340386E+02 -0.23821892399E+03  0.26202148645E+03  0.80077534162E+02 0.  0.
         25    2    1    2    0    0 -0.31420855365E+03 -0.44724351536E+02  0.37027003488E+01  0.34112675774E+03  0.12500588806E+03 0.  0.
         24    2    1    2    0    0  0.11687722358E+03  0.88911361878E+02  0.43097499216E+02  0.17291290586E+03  0.80473367727E+02 0.  0.
        -11    1    3    3    0    0  0.16766078828E+02 -0.26028917214E+02 -0.90529808829E+02  0.95677856462E+02  0.00000000000E+00 0.  1.
         12    1    3    3    0    0 -0.73352871837E+02 -0.21851423172E+02 -0.14768911516E+03  0.16634362999E+03  0.00000000000E+00 0. -1.
        -11    1    5    5    0    0 -0.92414002401E-01  0.23351963356E+01 -0.15763189541E+02  0.15935489537E+02  0.00000000000E+00 0.  1.
         12    1    5    5    0    0  0.11696963758E+03  0.86576165542E+02  0.58860688757E+02  0.15697741633E+03  0.00000000000E+00 0. -1.
          5    1    4    4  501    0 -0.34889496295E+02  0.23373770208E+02 -0.29705238732E+02  0.51653666797E+02  0.47000000000E+01 0. -1.
         -5    1    4    4    0  501 -0.27931905736E+03 -0.68098121744E+02  0.33407939081E+02  0.28947309094E+03  0.47000000000E+01 0. -1.
          1    1    1    2  502    0  0.33080666675E+02 -0.19453847601E+02  0.12454250415E+04  0.12460161783E+04  0.00000000000E+00 0. -1.
          1    1    1    2  503    0  0.22083745640E+03  0.23147177646E+02 -0.17872870781E+04  0.18010275050E+04  0.00000000000E+00 0. -1.
<mgrwt>
<rscale>  0 0.73612591E+02</rscale>
<asrwt>0</asrwt>
<pdfrwt beam="1">  1        2 0.22719295E+00 0.38376851E+02</pdfrwt>
<pdfrwt beam="2">  1        2 0.33502835E+00 0.14120006E+03</pdfrwt>
<totfact> 0.16583119E+01</totfact>
</mgrwt>
</event>
<event>
13    1  0.2101801E-008  0.3194237E+02  0.7546771E-02  0.1611660E+00
          2   -1    0    0  502    0  0.00000000000E+00  0.00000000000E+00  0.33730764602E+04  0.33730764602E+04  0.00000000000E+00 0. -1.
          2   -1    0    0  503    0 -0.00000000000E+00 -0.00000000000E+00 -0.35296359744E+04  0.35296359744E+04  0.00000000000E+00 0. -1.
         24    2    1    2    0    0  0.63147353382E+03  0.67526242257E+03 -0.95337334000E+03  0.13292974436E+04  0.58075853889E+02 0.  0.
         25    2    1    2    0    0 -0.28436903921E+03 -0.89048145282E+03 -0.24461660770E+03  0.97431386419E+03  0.12500901129E+03 0.  0.
         24    2    1    2    0    0 -0.33658035419E+03  0.16354570507E+03  0.54220193745E+03  0.66380806686E+03  0.81392113812E+02 0.  0.
        -11    1    5    5    0    0 -0.23660268299E+03  0.76615450425E+02  0.32256365226E+03  0.40730586370E+03  0.00000000000E+00 0.  1.
         12    1    5    5    0    0 -0.99977671201E+02  0.86930254641E+02  0.21963828518E+03  0.25650220317E+03  0.00000000000E+00 0. -1.
        -13    1    3    3    0    0  0.29587555675E+03  0.35348060574E+03 -0.49501163005E+03  0.67640771551E+03  0.00000000000E+00 0.  1.
         14    1    3    3    0    0  0.33559797707E+03  0.32178181683E+03 -0.45836170995E+03  0.65288972805E+03  0.00000000000E+00 0. -1.
          5    1    4    4  501    0 -0.16792536138E+03 -0.60675098499E+03 -0.21873296950E+03  0.66649222555E+03  0.47000000000E+01 0. -1.
         -5    1    4    4    0  501 -0.11644367784E+03 -0.28373046783E+03 -0.25883638205E+02  0.30782163863E+03  0.47000000000E+01 0. -1.
          1    1    1    2  502    0 -0.17577954969E+02  0.26669483122E+02  0.22170475165E+04  0.22172775957E+04  0.00000000000E+00 0. -1.
          1    1    1    2  503    0  0.70538145526E+01  0.25003842066E+02 -0.17178190205E+04  0.17180154643E+04  0.00000000000E+00 0. -1.
<mgrwt>
<rscale>  0 0.28807209E+02</rscale>
<asrwt>0</asrwt>
<pdfrwt beam="1">  1        2 0.49604066E+00 0.31942366E+02</pdfrwt>
<pdfrwt beam="2">  1        2 0.51906411E+00 0.25979769E+02</pdfrwt>
<totfact> 0.66491705E-01</totfact>
</mgrwt>
</event>
<event>
13    1  0.2101801E-008  0.1256929E+03  0.7546771E-02  0.1370096E+00
          2   -1    0    0  502    0  0.00000000000E+00  0.00000000000E+00  0.25894256305E+04  0.25894256305E+04  0.00000000000E+00 0. -1.
          2   -1    0    0  503    0 -0.00000000000E+00 -0.00000000000E+00 -0.82639933701E+03  0.82639933701E+03  0.00000000000E+00 0. -1.
         24    2    1    2    0    0  0.19982068757E+03 -0.19126821937E+03 -0.18713726387E+03  0.34351436751E+03  0.80435851682E+02 0.  0.
         25    2    1    2    0    0  0.14277814908E+02 -0.17680999889E+03 -0.20476230277E+03  0.29836067334E+03  0.12500343618E+03 0.  0.
         24    2    1    2    0    0 -0.67027051349E+02  0.30179019829E+03 -0.76296372683E+02  0.32259065045E+03  0.51707271023E+02 0.  0.
        -11    1    5    5    0    0 -0.23310232006E+02  0.12944501236E+03 -0.68468601605E+01  0.13170519214E+03  0.00000000000E+00 0.  1.
         12    1    5    5    0    0 -0.43716819343E+02  0.17234518593E+03 -0.69449512523E+02  0.19088545832E+03  0.00000000000E+00 0. -1.
        -13    1    3    3    0    0  0.81903576375E+02 -0.92144903694E+02 -0.37759471243E+02  0.12893663858E+03  0.00000000000E+00 0.  1.
         14    1    3    3    0    0  0.11791711119E+03 -0.99123315680E+02 -0.14937779263E+03  0.21457772893E+03  0.00000000000E+00 0. -1.
          5    1    4    4  501    0 -0.21747573378E+02  0.88817386091E+01 -0.43894142945E+02  0.50006279740E+02  0.47000000000E+01 0.  1.
         -5    1    4    4    0  501  0.36025388286E+02 -0.18569173750E+03 -0.16086815983E+03  0.24835439360E+03  0.47000000000E+01 0.  1.
          1    1    1    2  502    0 -0.11328364140E+03  0.54262846834E+02  0.23366370226E+04  0.23400107298E+04  0.00000000000E+00 0. -1.
          1    1    1    2  503    0 -0.33787809729E+02  0.12025173137E+02 -0.10541478982E+03  0.11134854641E+03  0.00000000000E+00 0. -1.
<mgrwt>
<rscale>  0 0.67140444E+02</rscale>
<asrwt>0</asrwt>
<pdfrwt beam="1">  1        2 0.38079788E+00 0.12569287E+03</pdfrwt>
<pdfrwt beam="2">  1        2 0.12152932E+00 0.35863922E+02</pdfrwt>
<totfact> 0.27695266E+01</totfact>
</mgrwt>
</event>
<event>
13    1  0.2101801E-008  0.1472546E+03  0.7546771E-02  0.1247583E+00
          2   -1    0    0  502    0  0.00000000000E+00  0.00000000000E+00  0.12556454612E+04  0.12556454612E+04  0.00000000000E+00 0. -1.
          2   -1    0    0  503    0 -0.00000000000E+00 -0.00000000000E+00 -0.27627019664E+04  0.27627019664E+04  0.00000000000E+00 0. -1.
         24    2    1    2    0    0 -0.11746141400E+03  0.18420254651E+02 -0.35341258346E+03  0.38365224449E+03  0.90288986008E+02 0.  0.
         25    2    1    2    0    0 -0.25969423287E+03 -0.17246351650E+03 -0.28216205633E+03  0.43866262690E+03  0.12499886039E+03 0.  0.
         24    2    1    2    0    0  0.22547602273E+03 -0.26698938333E+02 -0.10578883837E+03  0.26376743421E+03  0.82642064903E+02 0.  0.
        -11    1    3    3    0    0 -0.11313080412E+03 -0.13197386349E+02 -0.30590698197E+03  0.32642278025E+03  0.00000000000E+00 0.  1.
         12    1    3    3    0    0 -0.43306098722E+01  0.31617641000E+02 -0.47505601495E+02  0.57229464244E+02  0.00000000000E+00 0. -1.
        -13    1    5    5    0    0  0.53401131212E+02  0.89423258288E+01 -0.62683977471E+02  0.82830713129E+02  0.00000000000E+00 0.  1.
         14    1    5    5    0    0  0.17207489152E+03 -0.35641264162E+02 -0.43104860898E+02  0.18093672108E+03  0.00000000000E+00 0. -1.
          5    1    4    4  501    0 -0.17897172694E+03 -0.13195409919E+03 -0.11932204298E+03  0.25239374651E+03  0.47000000000E+01 0. -1.
         -5    1    4    4    0  501 -0.80722505925E+02 -0.40509417312E+02 -0.16284001335E+03  0.18626888039E+03  0.47000000000E+01 0. -1.
          1    1    1    2  502    0  0.79065972944E+02  0.49855532842E+02  0.10782315039E+04  0.10822754632E+04  0.00000000000E+00 0. -1.
          1    1    1    2  503    0  0.72613651191E+02  0.13088666734E+03 -0.18439245310E+04  0.18499896589E+04  0.00000000000E+00 0. -1.
<mgrwt>
<rscale>  0 0.11732079E+03</rscale>
<asrwt>0</asrwt>
<pdfrwt beam="1">  1        2 0.18465375E+00 0.93471933E+02</pdfrwt>
<pdfrwt beam="2">  1        2 0.40627969E+00 0.14725456E+03</pdfrwt>
<totfact> 0.12158035E+01</totfact>
</mgrwt>
</event>
<event>
13    1  0.2101801E-008  0.1001970E+03  0.7546771E-02  0.1288182E+00
          2   -1    0    0  503    0  0.00000000000E+00  0.00000000000E+00  0.40076730030E+04  0.40076730030E+04  0.00000000000E+00 0. -1.
          2   -1    0    0  502    0 -0.00000000000E+00 -0.00000000000E+00 -0.19519182488E+04  0.19519182488E+04  0.00000000000E+00 0. -1.
         24    2    1    2    0    0  0.10080048187E+02  0.49876528201E+02 -0.45234670987E+03  0.46233901967E+03  0.80935454174E+02 0.  0.
         25    2    1    2    0    0  0.67546363230E+02  0.16160847797E+03  0.58902763812E+03  0.62710303785E+03  0.12499940113E+03 0.  0.
         24    2    1    2    0    0 -0.54438290825E+02 -0.40465868461E+02 -0.43028883151E+02  0.11362869315E+03  0.80367786477E+02 0.  0.
        -11    1    5    5    0    0 -0.21239755079E+02 -0.58071136279E+02 -0.44242302158E+02  0.76031344621E+02  0.00000000000E+00 0.  1.
         12    1    5    5    0    0 -0.33198535746E+02  0.17605267818E+02  0.12134190077E+01  0.37597348527E+02  0.00000000000E+00 0. -1.
        -13    1    3    3    0    0  0.37588187315E+02  0.38271972519E+02 -0.16628514629E+03  0.17472368352E+03  0.00000000000E+00 0.  1.
         14    1    3    3    0    0 -0.27508139128E+02  0.11604555682E+02 -0.28606156358E+03  0.28761533615E+03  0.00000000000E+00 0. -1.
          5    1    4    4  501    0  0.42393535977E+02  0.17592418336E+03  0.54438282920E+03  0.57369093153E+03  0.47000000000E+01 0. -1.
         -5    1    4    4    0  501  0.25152827253E+02 -0.14315705389E+02  0.44644808914E+02  0.53412106330E+02  0.47000000000E+01 0. -1.
          1    1    1    2  502    0 -0.86247288017E+02 -0.93015875371E+02 -0.13935789192E+04  0.13993401130E+04  0.00000000000E+00 0. -1.
          1    1    1    2  503    0  0.63059167425E+02 -0.78003262344E+02  0.33556816283E+04  0.33571803881E+04  0.00000000000E+00 0. -1.
<mgrwt>
<rscale>  0 0.96342031E+02</rscale>
<asrwt>0</asrwt>
<pdfrwt beam="1">  1        2 0.58936367E+00 0.10019705E+03</pdfrwt>
<pdfrwt beam="2">  1        2 0.28704680E+00 0.92635335E+02</pdfrwt>
<totfact> 0.11067020E+00</totfact>
</mgrwt>
</event>
<event>
13    1  0.2101801E-008  0.5950548E+02  0.7546771E-02  0.1504993E+00
         -3   -1    0    0    0  501 -0.00000000000E+00  0.00000000000E+00  0.12518200174E+04  0.12518200174E+04  0.00000000000E+00 0.  1.
          2   -1    0    0  503    0  0.00000000000E+00 -0.00000000000E+00 -0.33424764343E+04  0.33424764343E+04  0.00000000000E+00 0. -1.
         24    2    1    2    0    0 -0.21920791328E+02 -0.12286770116E+03  0.20913134435E+02  0.14821966175E+03  0.77166805400E+02 0.  0.
         25    2    1    2    0    0  0.61015361294E+02 -0.60481556711E+02  0.20572715665E+03  0.25558867907E+03  0.12498406647E+03 0.  0.
         24    2    1    2    0    0 -0.89357080074E+02  0.16683793428E+03 -0.36039149304E+03  0.41626455351E+03  0.87031983648E+02 0.  0.
        -11    1    3    3    0    0  0.28647350802E+02 -0.40524787208E+02  0.14544447822E+01  0.49649214454E+02  0.00000000000E+00 0.  1.
         12    1    3    3    0    0 -0.50568142130E+02 -0.82342913951E+02  0.19458689653E+02  0.98570447293E+02  0.00000000000E+00 0. -1.
        -11    1    5    5    0    0 -0.66588125362E+02  0.11727883806E+03 -0.32331694520E+03  0.35031721532E+03  0.00000000000E+00 0.  1.
         12    1    5    5    0    0 -0.22768954713E+02  0.49559096218E+02 -0.37074547844E+02  0.65947338191E+02  0.00000000000E+00 0. -1.
          5    1    4    4  502    0  0.54156533572E+02  0.25740327738E+02  0.53773821885E+02  0.80679666092E+02  0.47000000000E+01 0. -1.
         -5    1    4    4    0  502  0.68588277223E+01 -0.86221884449E+02  0.15195333476E+03  0.17490901298E+03  0.47000000000E+01 0. -1.
          1    1    1    2  503    0  0.41576622279E+02  0.42586785875E+02 -0.28650474304E+04  0.28656655472E+04  0.00000000000E+00 0. -1.
         -4    1    1    2    0  501  0.86858878296E+01 -0.26075462281E+02  0.90814221551E+03  0.90855801024E+03  0.00000000000E+00 0.  1.
<mgrwt>
<rscale>  0 0.40440735E+02</rscale>
<asrwt>0</asrwt>
<pdfrwt beam="2">  1        2 0.49154065E+00 0.59505478E+02</pdfrwt>
<pdfrwt beam="1">  1       -3 0.18409118E+00 0.27484075E+02</pdfrwt>
<totfact> 0.26503231E-01</totfact>
</mgrwt>
</event>
<event>
13    1  0.2101801E-008  0.9875221E+02  0.7546771E-02  0.1443207E+00
          4   -1    0    0  503    0 -0.00000000000E+00  0.00000000000E+00  0.99300974716E+02  0.99300974716E+02  0.00000000000E+00 0. -1.
          2   -1    0    0  502    0  0.00000000000E+00 -0.00000000000E+00 -0.19564119849E+04  0.19564119849E+04  0.00000000000E+00 0. -1.
         24    2    1    2    0    0  0.11016673816E+03  0.16745418915E+03 -0.51552603136E+03  0.55859197137E+03  0.77976187429E+02 0.  0.
         25    2    1    2    0    0 -0.44872458495E+02 -0.14470203814E+03 -0.98331990239E+03  0.10027440319E+04  0.12500138305E+03 0.  0.
         24    2    1    2    0    0 -0.12692105909E+02 -0.11334962861E+03 -0.58616765855E+02  0.15151088034E+03  0.80687011129E+02 0.  0.
        -11    1    5    5    0    0 -0.27125053542E+02 -0.19965657308E+02 -0.44746239529E+02  0.56005552880E+02  0.00000000000E+00 0.  1.
         12    1    5    5    0    0  0.14432947633E+02 -0.93383971299E+02 -0.13870526325E+02  0.95505327462E+02  0.00000000000E+00 0. -1.
        -11    1    3    3    0    0  0.15591231216E+02  0.66137853909E+02 -0.24999507779E+03  0.25906532213E+03  0.00000000000E+00 0.  1.
         12    1    3    3    0    0  0.94575506943E+02  0.10131633524E+03 -0.26553095357E+03  0.29952664924E+03  0.00000000000E+00 0. -1.
          5    1    4    4  501    0 -0.82380765890E+02 -0.13235523455E+03 -0.74805870209E+03  0.76414554273E+03  0.47000000000E+01 0. -1.
         -5    1    4    4    0  501  0.37508307395E+02 -0.12346803591E+02 -0.23526120030E+03  0.23859848920E+03  0.47000000000E+01 0. -1.
          1    1    1    2  502    0 -0.68676353904E+02  0.70518473639E+02 -0.30141896324E+03  0.31708467025E+03  0.00000000000E+00 0. -1.
          3    1    1    2  503    0  0.16074180148E+02  0.20079003962E+02  0.17706527072E+01  0.25781405674E+02  0.00000000000E+00 0. -1.
<mgrwt>
<rscale>  0 0.50398009E+02</rscale>
<asrwt>0</asrwt>
<pdfrwt beam="2">  1        2 0.28770764E+00 0.98752213E+02</pdfrwt>
<pdfrwt beam="1">  1        4 0.14603085E-01 0.25720530E+02</pdfrwt>
<totfact> 0.14668275E+02</totfact>
</mgrwt>
</event>
<event>
13    1  0.2101801E-008  0.1159529E+03  0.7546771E-02  0.1265210E+00
         -3   -1    0    0    0  501 -0.00000000000E+00  0.00000000000E+00  0.37239903085E+03  0.37239903085E+03  0.00000000000E+00 0.  1.
          2   -1    0    0  503    0  0.00000000000E+00 -0.00000000000E+00 -0.44676490935E+04  0.44676490935E+04  0.00000000000E+00 0. -1.
         24    2    1    2    0    0  0.55866182211E+02  0.24828328423E+03 -0.11125705563E+03  0.28900563069E+03  0.79878048315E+02 0.  0.
         25    2    1    2    0    0 -0.85022885962E+02 -0.25444994872E+03 -0.17273606689E+04  0.17525337715E+04  0.12500428790E+03 0.  0.
         24    2    1    2    0    0 -0.13440214819E+03 -0.10665758058E+02 -0.43254675442E+03  0.45986924458E+03  0.78773926615E+02 0.  0.
        -11    1    5    5    0    0 -0.58465335442E+02 -0.36106025535E+02 -0.27079661885E+03  0.27937904236E+03  0.00000000000E+00 0.  1.
         12    1    5    5    0    0 -0.75936812752E+02  0.25440267477E+02 -0.16175013558E+03  0.18049020223E+03  0.00000000000E+00 0. -1.
        -11    1    3    3    0    0  0.50737220165E+02  0.70672601381E+02 -0.20051992772E+02  0.89280258233E+02  0.00000000000E+00 0.  1.
         12    1    3    3    0    0  0.51289620460E+01  0.17761068285E+03 -0.91205062859E+02  0.19972537246E+03  0.00000000000E+00 0. -1.
          5    1    4    4  502    0 -0.45995031330E+02 -0.22956087341E+02 -0.51973593704E+03  0.52229307779E+03  0.47000000000E+01 0.  1.
         -5    1    4    4    0  502 -0.39027854633E+02 -0.23149386138E+03 -0.12076247319E+04  0.12302406937E+04  0.47000000000E+01 0.  1.
          1    1    1    2  503    0  0.78354850360E+02 -0.61685258789E+02 -0.20670542140E+04  0.20694583053E+04  0.00000000000E+00 0. -1.
         -4    1    1    2    0  501  0.85204001585E+02  0.78517681340E+02  0.24296863037E+03  0.26918117228E+03  0.00000000000E+00 0.  1.
<mgrwt>
<rscale>  0 0.10753184E+03</rscale>
<asrwt>0</asrwt>
<pdfrwt beam="2">  1        2 0.65700721E+00 0.99722383E+02</pdfrwt>
<pdfrwt beam="1">  1       -3 0.54764564E-01 0.11595287E+03</pdfrwt>
<totfact> 0.68183219E-01</totfact>
</mgrwt>
</event>
<event>
13    1  0.2101801E-008  0.1509580E+03  0.7546771E-02  0.1352672E+00
          2   -1    0    0  503    0  0.00000000000E+00  0.00000000000E+00  0.28756542031E+04  0.28756542031E+04  0.00000000000E+00 0. -1.
         -3   -1    0    0    0  501 -0.00000000000E+00 -0.00000000000E+00 -0.10083183068E+04  0.10083183068E+04  0.00000000000E+00 0.  1.
         24    2    1    2    0    0  0.21856470019E+03  0.10701731349E+03 -0.53023056480E+03  0.58906259054E+03  0.81406696060E+02 0.  0.
         25    2    1    2    0    0  0.73558152485E+01 -0.94946715019E+02  0.36326749409E+03  0.39580221610E+03  0.12500854088E+03 0.  0.
         24    2    1    2    0    0 -0.91825847270E+02 -0.30106161212E+02 -0.59541964491E+02  0.13874435794E+03  0.79789624360E+02 0.  0.
        -11    1    5    5    0    0  0.10300652916E+02 -0.35786802341E+01 -0.25727354141E+02  0.27942926722E+02  0.00000000000E+00 0.  1.
         12    1    5    5    0    0 -0.10212650019E+03 -0.26527480978E+02 -0.33814610350E+02  0.11080143122E+03  0.00000000000E+00 0. -1.
        -11    1    3    3    0    0  0.18501712450E+03  0.10899138804E+03 -0.49876363641E+03  0.54302451513E+03  0.00000000000E+00 0.  1.
         12    1    3    3    0    0  0.33547575687E+02 -0.19740745456E+01 -0.31466928388E+02  0.46038075404E+02  0.00000000000E+00 0. -1.
          5    1    4    4  502    0  0.17244834152E+02 -0.63481436744E+02  0.35553614010E+03  0.36160104263E+03  0.47000000000E+01 0. -1.
         -5    1    4    4    0  502 -0.98890189039E+01 -0.31465278275E+02  0.77313539935E+01  0.34201173465E+02  0.47000000000E+01 0. -1.
          1    1    1    2  503    0  0.32404715520E+02 -0.12013218953E+02  0.24054966364E+04  0.24057448848E+04  0.00000000000E+00 0. -1.
         -4    1    1    2    0  501 -0.16649938369E+03  0.30048781692E+02 -0.31165570493E+03  0.35461846042E+03  0.00000000000E+00 0.  1.
<mgrwt>
<rscale>  0 0.72229402E+02</rscale>
<asrwt>0</asrwt>
<pdfrwt beam="1">  1        2 0.42289032E+00 0.34559847E+02</pdfrwt>
<pdfrwt beam="2">  1       -3 0.14828210E+00 0.15095803E+03</pdfrwt>
<totfact> 0.87107456E-01</totfact>
</mgrwt>
</event>
<event>
13    1  0.2101801E-008  0.8373981E+02  0.7546771E-02  0.1387807E+00
          2   -1    0    0  503    0  0.00000000000E+00  0.00000000000E+00  0.24501252528E+04  0.24501252528E+04  0.00000000000E+00 0. -1.
         -1   -1    0    0    0  501 -0.00000000000E+00 -0.00000000000E+00 -0.65894692261E+03  0.65894692261E+03  0.00000000000E+00 0.  1.
         24    2    1    2    0    0 -0.59097181201E+02  0.83534541202E+02 -0.15980549817E+03  0.20632516217E+03  0.81004807875E+02 0.  0.
         25    2    1    2    0    0 -0.75048852214E+02 -0.18508073976E+03  0.81758653886E+03  0.85085861919E+03  0.12500172348E+03 0.  0.
         24    2    1    2    0    0  0.74047216897E+02  0.22148575691E+02 -0.50464665997E+02  0.12222806859E+03  0.80121585745E+02 0.  0.
        -11    1    3    3    0    0 -0.18402273547E+01 -0.10313803213E+02 -0.49478914834E+02  0.50575922993E+02  0.00000000000E+00 0.  1.
         12    1    3    3    0    0 -0.57256953847E+02  0.93848344415E+02 -0.11032658334E+03  0.15574923918E+03  0.00000000000E+00 0. -1.
        -13    1    5    5    0    0  0.16269646599E+02 -0.27089091832E+02 -0.98557806715E+00  0.31614738033E+02  0.00000000000E+00 0.  1.
         14    1    5    5    0    0  0.57777570298E+02  0.49237667524E+02 -0.49479087930E+02  0.90613330560E+02  0.00000000000E+00 0. -1.
          5    1    4    4  502    0 -0.64265508312E+02 -0.20337779695E+03  0.75687939011E+03  0.78637210341E+03  0.47000000000E+01 0.  1.
         -5    1    4    4    0  502 -0.10783343902E+02  0.18297057191E+02  0.60707148749E+02  0.64486515775E+02  0.47000000000E+01 0.  1.
          1    1    1    2  503    0  0.46470925921E+02 -0.32020998798E+01  0.15517086173E+04  0.15524076247E+04  0.00000000000E+00 0. -1.
         -2    1    1    2    0  501  0.13627890598E+02  0.82599722747E+02 -0.36784666180E+03  0.37725270071E+03  0.00000000000E+00 0.  1.
<mgrwt>
<rscale>  0 0.62455535E+02</rscale>
<asrwt>0</asrwt>
<pdfrwt beam="1">  1        2 0.36031253E+00 0.46581116E+02</pdfrwt>
<pdfrwt beam="2">  1       -1 0.96903960E-01 0.83739811E+02</pdfrwt>
<totfact> 0.80145821E+00</totfact>
</mgrwt>
</event>
<event>
13    1  0.2101801E-008  0.1576212E+03  0.7546771E-02  0.1255902E+00
          2   -1    0    0  502    0  0.00000000000E+00  0.00000000000E+00  0.14875829003E+04  0.14875829003E+04  0.00000000000E+00 0. -1.
          2   -1    0    0  503    0 -0.00000000000E+00 -0.00000000000E+00 -0.37751877230E+04  0.37751877230E+04  0.00000000000E+00 0. -1.
         24    2    1    2    0    0 -0.98699611959E+02 -0.23264407568E+02 -0.14731613093E+03  0.20649920930E+03  0.10323291601E+03 0.  0.
         25    2    1    2    0    0  0.83384935311E+02  0.37396236936E+02  0.12497679265E+03  0.19898792260E+03  0.12500187465E+03 0.  0.
         24    2    1    2    0    0 -0.19566583615E+02  0.68538060313E+02 -0.10102137661E+03  0.14705964323E+03  0.79629788584E+02 0.  0.
        -11    1    5    5    0    0 -0.38147399733E+02  0.30134657109E+01 -0.43264390457E+02  0.57759090745E+02  0.00000000000E+00 0.  1.
         12    1    5    5    0    0  0.18580816118E+02  0.65524594602E+02 -0.57756986153E+02  0.89300552489E+02  0.00000000000E+00 0. -1.
        -13    1    3    3    0    0  0.10973435220E+01  0.12709822018E+02 -0.79667036146E+02  0.80681970643E+02  0.00000000000E+00 0.  1.
         14    1    3    3    0    0 -0.99796955481E+02 -0.35974229586E+02 -0.67649094782E+02  0.12581723865E+03  0.00000000000E+00 0. -1.
          5    1    4    4  501    0  0.14277625306E+02 -0.42378100990E+02  0.59917949465E+02  0.74913314545E+02  0.47000000000E+01 0.  1.
         -5    1    4    4    0  501  0.69107310005E+02  0.79774337927E+02  0.65058843180E+02  0.12407460805E+03  0.47000000000E+01 0.  1.
          1    1    1    2  502    0  0.10523111971E+03 -0.12155361508E+03  0.12674409575E+04  0.12775975308E+04  0.00000000000E+00 0. -1.
          1    1    1    2  503    0 -0.70349859444E+02  0.38883725394E+02 -0.34316850654E+04  0.34326263174E+04  0.00000000000E+00 0. -1.
<mgrwt>
<rscale>  0 0.11255974E+03</rscale>
<asrwt>0</asrwt>
<pdfrwt beam="1">  1        2 0.21876219E+00 0.15762122E+03</pdfrwt>
<pdfrwt beam="2">  1        2 0.55517467E+00 0.80380637E+02</pdfrwt>
<totfact> 0.26390389E+00</totfact>
</mgrwt>
</event>
<event>
13    1  0.2101801E-008  0.1163705E+03  0.7546771E-02  0.1403572E+00
          2   -1    0    0  503    0  0.00000000000E+00  0.00000000000E+00  0.12614465993E+04  0.12614465993E+04  0.00000000000E+00 0. -1.
          2   -1    0    0  502    0 -0.00000000000E+00 -0.00000000000E+00 -0.16509947579E+04  0.16509947579E+04  0.00000000000E+00 0. -1.
         24    2    1    2    0    0 -0.13405593116E+02  0.57335623912E+02 -0.11269591118E+03  0.15037550512E+03  0.80282877678E+02 0.  0.
         25    2    1    2    0    0 -0.16347856633E+03 -0.51164927527E+02  0.87973872900E+03  0.90493676105E+03  0.12500887466E+03 0.  0.
         24    2    1    2    0    0  0.20287366166E+02  0.28159796740E+02  0.84143534332E+02  0.12093329087E+03  0.79625216442E+02 0.  0.
        -11    1    3    3    0    0 -0.41456799712E+01 -0.12210928500E+02 -0.63227577615E+02  0.64529218253E+02  0.00000000000E+00 0.  1.
         12    1    3    3    0    0 -0.92599131444E+01  0.69546552412E+02 -0.49468333565E+02  0.85846286871E+02  0.00000000000E+00 0. -1.
        -11    1    5    5    0    0  0.36032024263E+02 -0.16247846207E+02  0.42672330671E+02  0.58165514558E+02  0.00000000000E+00 0.  1.
         12    1    5    5    0    0 -0.15744658097E+02  0.44407642947E+02  0.41471203661E+02  0.62767776317E+02  0.00000000000E+00 0. -1.
          5    1    4    4  501    0 -0.14997832045E+03  0.41013923056E+01  0.71502267789E+03  0.73060922382E+03  0.47000000000E+01 0.  1.
         -5    1    4    4    0  501 -0.13500245880E+02 -0.55266319833E+02  0.16471605111E+03  0.17432753724E+03  0.47000000000E+01 0.  1.
          1    1    1    2  502    0  0.14754165016E+03 -0.62472116265E+02 -0.14832532625E+04  0.14918818802E+04  0.00000000000E+00 0. -1.
          1    1    1    2  503    0  0.90551431241E+01  0.28141623140E+02  0.24251875172E+03  0.24431392000E+03  0.00000000000E+00 0. -1.
<mgrwt>
<rscale>  0 0.58653321E+02</rscale>
<asrwt>0</asrwt>
<pdfrwt beam="1">  1        2 0.18550685E+00 0.29562587E+02</pdfrwt>
<pdfrwt beam="2">  1        2 0.24279334E+00 0.11637047E+03</pdfrwt>
<totfact> 0.47662101E+01</totfact>
</mgrwt>
</event>
<event>
13    1  0.2101801E-008  0.3956084E+02  0.7546771E-02  0.1598132E+00
          2   -1    0    0  503    0  0.00000000000E+00  0.00000000000E+00  0.19245948758E+04  0.19245948758E+04  0.00000000000E+00 0. -1.
          2   -1    0    0  502    0 -0.00000000000E+00 -0.00000000000E+00 -0.85785900465E+03  0.85785900465E+03  0.00000000000E+00 0. -1.
         24    2    1    2    0    0 -0.41237526870E+02  0.32256172051E+03 -0.59083822204E+03  0.68063028840E+03  0.91767029549E+02 0.  0.
         25    2    1    2    0    0  0.20229318276E+02 -0.31097942972E+03  0.37562474163E+03  0.50383027644E+03  0.12503427492E+03 0.  0.
         24    2    1    2    0    0  0.43154616292E+02  0.21086925082E+01 -0.13024549653E+02  0.91783423946E+02  0.79923654360E+02 0.  0.
        -11    1    5    5    0    0 -0.24368838891E+01  0.34675031072E+02 -0.66881771844E+01  0.35398134089E+02  0.00000000000E+00 0.  1.
         12    1    5    5    0    0  0.45591500181E+02 -0.32566338564E+02 -0.63363724683E+01  0.56385289857E+02  0.00000000000E+00 0. -1.
        -13    1    3    3    0    0 -0.25172792330E+02  0.46129260944E+02 -0.16068049390E+03  0.16905561011E+03  0.00000000000E+00 0.  1.
         14    1    3    3    0    0 -0.16064734540E+02  0.27643245956E+03 -0.43015772813E+03  0.51157467829E+03  0.00000000000E+00 0. -1.
          5    1    4    4  501    0  0.11128333390E+02 -0.17393193315E+03  0.29995464758E+03  0.34694529507E+03  0.47000000000E+01 0.  1.
         -5    1    4    4    0  501  0.91009848857E+01 -0.13704749658E+03  0.75670094050E+02  0.15688498136E+03  0.47000000000E+01 0.  1.
          1    1    1    2  502    0 -0.53094947031E+01  0.22115451398E+02 -0.10411062697E+03  0.10656597287E+03  0.00000000000E+00 0. -1.
          1    1    1    2  503    0 -0.16836912994E+02 -0.35806434693E+02  0.13990845282E+04  0.13996439188E+04  0.00000000000E+00 0. -1.
<mgrwt>
<rscale>  0 0.29996115E+02</rscale>
<asrwt>0</asrwt>
<pdfrwt beam="1">  1        2 0.28302866E+00 0.39560843E+02</pdfrwt>
<pdfrwt beam="2">  1        2 0.12615574E+00 0.22743877E+02</pdfrwt>
<totfact> 0.64821273E+01</totfact>
</mgrwt>
</event>
<event>
13    1  0.2101801E-008  0.6959282E+03  0.7546771E-02  0.1152119E+00
          2   -1    0    0  503    0  0.00000000000E+00  0.00000000000E+00  0.39039178057E+04  0.39039178057E+04  0.00000000000E+00 0. -1.
          2   -1    0    0  502    0 -0.00000000000E+00 -0.00000000000E+00 -0.10636516593E+04  0.10636516593E+04  0.00000000000E+00 0. -1.
         24    2    1    2    0    0 -0.86364707508E+02 -0.62214658297E+03  0.73348702722E+03  0.96971346689E+03  0.88406760815E+02 0.  0.
         25    2    1    2    0    0  0.71784146333E+02  0.96257201746E+02  0.36670623400E+03  0.40561485564E+03  0.12502614332E+03 0.  0.
         24    2    1    2    0    0 -0.89636620887E+02 -0.12930959214E+03  0.24643773464E+03  0.30344922819E+03  0.81204572634E+02 0.  0.
        -11    1    5    5    0    0 -0.80499663743E+02 -0.48302554209E+02  0.11106874847E+03  0.14542901875E+03  0.00000000000E+00 0.  1.
         12    1    5    5    0    0 -0.91369571444E+01 -0.81007037927E+02  0.13536898616E+03  0.15802020945E+03  0.00000000000E+00 0. -1.
        -13    1    3    3    0    0 -0.89110149914E+02 -0.41270520433E+03  0.44770715957E+03  0.61539248064E+03  0.00000000000E+00 0.  1.
         14    1    3    3    0    0  0.27454424059E+01 -0.20944137864E+03  0.28577986765E+03  0.35432098624E+03  0.00000000000E+00 0. -1.
          5    1    4    4  501    0 -0.30184340420E+02  0.55192426823E+02  0.12350574221E+03  0.13868329656E+03  0.47000000000E+01 0. -1.
         -5    1    4    4    0  501  0.10196848675E+03  0.41064774923E+02  0.24320049178E+03  0.26693155908E+03  0.47000000000E+01 0. -1.
          1    1    1    2  502    0  0.75337841721E+02  0.70303977759E+03 -0.75793080773E+03  0.10365325989E+04  0.00000000000E+00 0. -1.
          1    1    1    2  503    0  0.28879340342E+02 -0.47840804231E+02  0.22515659583E+04  0.22522593153E+04  0.00000000000E+00 0. -1.
<mgrwt>
<rscale>  0 0.19720451E+03</rscale>
<asrwt>0</asrwt>
<pdfrwt beam="1">  1        2 0.57410556E+00 0.55881650E+02</pdfrwt>
<pdfrwt beam="2">  1        2 0.15641936E+00 0.69592825E+03</pdfrwt>
<totfact> 0.36976191E+00</totfact>
</mgrwt>
</event>
<event>
13    1  0.2101801E-008  0.1041918E+03  0.7546771E-02  0.1284635E+00
         -1   -1    0    0    0  501 -0.00000000000E+00  0.00000000000E+00  0.60520635251E+03  0.60520635251E+03  0.00000000000E+00 0.  1.
          2   -1    0    0  503    0  0.00000000000E+00 -0.00000000000E+00 -0.26106937963E+04  0.26106937963E+04  0.00000000000E+00 0. -1.
         24    2    1    2    0    0 -0.67447450684E+02  0.19246450994E+02  0.48174189962E+02  0.11772973883E+03  0.81363101874E+02 0.  0.
         25    2    1    2    0    0 -0.15574755031E+03  0.10529288373E+03 -0.10347010171E+04  0.10590446651E+04  0.12500206895E+03 0.  0.
         24    2    1    2    0    0  0.67881125000E+02 -0.49369932701E+02  0.97409871978E+02  0.15051773722E+03  0.78241093252E+02 0.  0.
        -13    1    3    3    0    0 -0.38450597034E+02  0.15269583011E+02 -0.18193220381E+02  0.45195152898E+02  0.00000000000E+00 0.  1.
         14    1    3    3    0    0 -0.28996853650E+02  0.39768679831E+01  0.66367410343E+02  0.72534585931E+02  0.00000000000E+00 0. -1.
        -13    1    5    5    0    0 -0.10189744686E+02 -0.32982264593E+02  0.23424776476E+02  0.41717871798E+02  0.00000000000E+00 0.  1.
         14    1    5    5    0    0  0.78070869686E+02 -0.16387668108E+02  0.73985095503E+02  0.10879986542E+03  0.00000000000E+00 0. -1.
          5    1    4    4  502    0 -0.38173192969E+02  0.48657391745E+01 -0.52389146768E+03  0.52532392672E+03  0.47000000000E+01 0.  1.
         -5    1    4    4    0  502 -0.11757435734E+03  0.10042714455E+03 -0.51080954939E+03  0.53372073842E+03  0.47000000000E+01 0.  1.
          1    1    1    2  503    0  0.91839737777E+02  0.70536049043E+01 -0.14940592410E+04  0.14968958903E+04  0.00000000000E+00 0. -1.
         -2    1    1    2    0  501  0.63474138214E+02 -0.82223006925E+02  0.37768875242E+03  0.39171211725E+03  0.00000000000E+00 0.  1.
<mgrwt>
<rscale>  0 0.97964943E+02</rscale>
<asrwt>0</asrwt>
<pdfrwt beam="2">  1        2 0.38392556E+00 0.92110210E+02</pdfrwt>
<pdfrwt beam="1">  1       -1 0.89000934E-01 0.10419182E+03</pdfrwt>
<totfact> 0.72316134E+00</totfact>
</mgrwt>
</event>
<event>
13    1  0.2101801E-008  0.1037840E+03  0.7546771E-02  0.1294975E+00
          2   -1    0    0  503    0  0.00000000000E+00  0.00000000000E+00  0.13887530561E+04  0.13887530561E+04  0.00000000000E+00 0. -1.
          2   -1    0    0  502    0 -0.00000000000E+00 -0.00000000000E+00 -0.12486223847E+04  0.12486223847E+04  0.00000000000E+00 0. -1.
         24    2    1    2    0    0 -0.99700295344E+01  0.59078350898E+03 -0.42918884328E+02  0.59796076923E+03  0.81181863322E+02 0.  0.
         25    2    1    2    0    0  0.10445709255E+03 -0.55422427538E+03 -0.27245314433E+03  0.63869562620E+03  0.12500222187E+03 0.  0.
         24    2    1    2    0    0 -0.72872339495E+02 -0.29455939318E+02 -0.49349649025E+02  0.12682612115E+03  0.86437531909E+02 0.  0.
        -11    1    5    5    0    0 -0.63909060375E+02  0.13001890629E+02 -0.60069820342E+01  0.65494282125E+02  0.00000000000E+00 0.  1.
         12    1    5    5    0    0 -0.89632791203E+01 -0.42457829947E+02 -0.43342666991E+02  0.61331839025E+02  0.00000000000E+00 0. -1.
        -13    1    3    3    0    0 -0.96289604341E+01  0.38262644946E+03  0.11099641191E+02  0.38290849917E+03  0.00000000000E+00 0.  1.
         14    1    3    3    0    0 -0.34106910035E+00  0.20815705952E+03 -0.54018525518E+02  0.21505227005E+03  0.00000000000E+00 0. -1.
          5    1    4    4  501    0 -0.25557752563E+02 -0.11873614243E+03 -0.38419810193E+02  0.12747408384E+03  0.47000000000E+01 0. -1.
         -5    1    4    4    0  501  0.13001484511E+03 -0.43548813294E+03 -0.23403333414E+03  0.51122154236E+03  0.47000000000E+01 0. -1.
          1    1    1    2  502    0 -0.10492603943E+03  0.31072603172E+01 -0.37532218673E+03  0.38972538110E+03  0.00000000000E+00 0. -1.
          1    1    1    2  503    0  0.83311315908E+02 -0.10210554603E+02  0.88017453579E+03  0.88416754308E+03  0.00000000000E+00 0. -1.
<mgrwt>
<rscale>  0 0.93333133E+02</rscale>
<asrwt>0</asrwt>
<pdfrwt beam="1">  1        2 0.20422839E+00 0.83934682E+02</pdfrwt>
<pdfrwt beam="2">  1        2 0.18362094E+00 0.10378396E+03</pdfrwt>
<totfact> 0.61522613E+01</totfact>
</mgrwt>
</event>
<event>
13    1  0.2101801E-008  0.5429567E+02  0.7546771E-02  0.1437160E+00
          2   -1    0    0  503    0  0.00000000000E+00  0.00000000000E+00  0.22539503108E+04  0.22539503108E+04  0.00000000000E+00 0. -1.
          2   -1    0    0  502    0 -0.00000000000E+00 -0.00000000000E+00 -0.71444745712E+03  0.71444745712E+03  0.00000000000E+00 0. -1.
         24    2    1    2    0    0 -0.82315954482E+02 -0.95345879318E+02 -0.23266930357E+03  0.27679667454E+03  0.81330444164E+02 0.  0.
         25    2    1    2    0    0 -0.22045980121E+03  0.27360936209E+03  0.76993125489E+03  0.85550211756E+03  0.12500051569E+03 0.  0.
         24    2    1    2    0    0  0.31500297839E+03 -0.18480672909E+03 -0.17177019656E+03  0.41129126983E+03  0.79215558435E+02 0.  0.
        -11    1    3    3    0    0 -0.64089410105E+01 -0.59986374187E+02 -0.13676188799E+03  0.14947659890E+03  0.00000000000E+00 0.  1.
         12    1    3    3    0    0 -0.75907013471E+02 -0.35359505131E+02 -0.95907415582E+02  0.12732007564E+03  0.00000000000E+00 0. -1.
        -13    1    5    5    0    0  0.44346648411E+02 -0.16453710273E+02  0.36917568235E+01  0.47444482034E+02  0.00000000000E+00 0.  1.
         14    1    5    5    0    0  0.27065632998E+03 -0.16835301881E+03 -0.17546195338E+03  0.36384678779E+03  0.00000000000E+00 0. -1.
          5    1    4    4  501    0 -0.16724669594E+03  0.18223696133E+03  0.65030874264E+03  0.69577677321E+03  0.47000000000E+01 0. -1.
         -5    1    4    4    0  501 -0.53213105265E+02  0.91372400761E+02  0.11962251225E+03  0.15972534436E+03  0.47000000000E+01 0. -1.
          1    1    1    2  502    0 -0.46809367466E+02 -0.28088963123E+02 -0.11897203351E+03  0.13089863059E+03  0.00000000000E+00 0. -1.
          1    1    1    2  503    0  0.34582144763E+02  0.34632209438E+02  0.12929831324E+04  0.12939090754E+04  0.00000000000E+00 0. -1.
<mgrwt>
<rscale>  0 0.51549355E+02</rscale>
<asrwt>0</asrwt>
<pdfrwt beam="1">  1        2 0.33146328E+00 0.48941952E+02</pdfrwt>
<pdfrwt beam="2">  1        2 0.10506580E+00 0.54295669E+02</pdfrwt>
<totfact> 0.53144745E+01</totfact>
</mgrwt>
</event>
<event>
13    1  0.2101801E-008  0.6116701E+02  0.7546771E-02  0.1424145E+00
          2   -1    0    0  503    0  0.00000000000E+00  0.00000000000E+00  0.12470602511E+04  0.12470602511E+04  0.00000000000E+00 0. -1.
          2   -1    0    0  502    0 -0.00000000000E+00 -0.00000000000E+00 -0.28816201181E+04  0.28816201181E+04  0.00000000000E+00 0. -1.
         24    2    1    2    0    0  0.49676134404E+03 -0.11527307398E+02 -0.37477638565E+03  0.62678521862E+03  0.74146202119E+02 0.  0.
         25    2    1    2    0    0 -0.29749334566E+03  0.22029254356E+03 -0.39744487606E+03  0.55733314348E+03  0.12500683127E+03 0.  0.
         24    2    1    2    0    0 -0.18197403905E+03 -0.27812003181E+03  0.49667356626E+02  0.34557455203E+03  0.80558188343E+02 0.  0.
        -11    1    5    5    0    0 -0.17971149970E+03 -0.25600235436E+03  0.27196282370E+02  0.31396347930E+03  0.00000000000E+00 0.  1.
         12    1    5    5    0    0 -0.22625393465E+01 -0.22117677458E+02  0.22471074256E+02  0.31611072722E+02  0.00000000000E+00 0. -1.
        -13    1    3    3    0    0  0.29764178822E+02 -0.18765493919E+02 -0.30365496446E+02  0.46477020961E+02  0.00000000000E+00 0.  1.
         14    1    3    3    0    0  0.46699716522E+03  0.72381865214E+01 -0.34441088920E+03  0.58030819766E+03  0.00000000000E+00 0. -1.
          5    1    4    4  501    0 -0.24499130687E+03  0.12719508098E+03 -0.23358340062E+03  0.36163880338E+03  0.47000000000E+01 0.  1.
         -5    1    4    4    0  501 -0.52502038788E+02  0.93097462583E+02 -0.16386147544E+03  0.19569434011E+03  0.47000000000E+01 0.  1.
          1    1    1    2  502    0 -0.50400379527E+02  0.34676076147E+02 -0.17542817929E+04  0.17553481813E+04  0.00000000000E+00 0. -1.
          1    1    1    2  503    0  0.33106420191E+02  0.34678719506E+02  0.84227583106E+03  0.84363927376E+03  0.00000000000E+00 0. -1.
<mgrwt>
<rscale>  0 0.54153529E+02</rscale>
<asrwt>0</asrwt>
<pdfrwt beam="1">  1        2 0.18339122E+00 0.47944224E+02</pdfrwt>
<pdfrwt beam="2">  1        2 0.42376765E+00 0.61167006E+02</pdfrwt>
<totfact> 0.12664606E+01</totfact>
</mgrwt>
</event>
<event>
13    1  0.2101801E-008  0.1960805E+03  0.7546771E-02  0.1341375E+00
          2   -1    0    0  503    0  0.00000000000E+00  0.00000000000E+00  0.34171257230E+04  0.34171257230E+04  0.00000000000E+00 0. -1.
          2   -1    0    0  502    0 -0.00000000000E+00 -0.00000000000E+00 -0.26772693368E+04  0.26772693368E+04  0.00000000000E+00 0. -1.
         24    2    1    2    0    0 -0.92755015918E+03  0.13011389784E+04  0.73422149854E+03  0.17603982875E+04  0.81295651102E+02 0.  0.
         25    2    1    2    0    0  0.41709325816E+03 -0.54008029717E+03  0.70427598784E+02  0.69730834163E+03  0.12500145299E+03 0.  0.
         24    2    1    2    0    0  0.35099217043E+03 -0.66978898985E+03 -0.10547323490E+03  0.77074298895E+03  0.10539144708E+03 0.  0.
        -11    1    5    5    0    0  0.84440701817E+02 -0.11453173839E+03 -0.55717524571E+02  0.15281424595E+03  0.00000000000E+00 0.  1.
         12    1    5    5    0    0  0.26655146861E+03 -0.55525725146E+03 -0.49755710326E+02  0.61792874300E+03  0.00000000000E+00 0. -1.
        -11    1    3    3    0    0 -0.43124771745E+03  0.61173273162E+03  0.29954112467E+03  0.80617393539E+03  0.00000000000E+00 0.  1.
         12    1    3    3    0    0 -0.49630244173E+03  0.68940624680E+03  0.43468037388E+03  0.95422435215E+03  0.00000000000E+00 0. -1.
          5    1    4    4  501    0  0.38910299898E+02 -0.46600045352E+02 -0.29371546153E+02  0.67604388825E+02  0.47000000000E+01 0. -1.
         -5    1    4    4    0  501  0.37818295826E+03 -0.49348025181E+03  0.99799144937E+02  0.62970395281E+03  0.47000000000E+01 0. -1.
          1    1    1    2  502    0  0.15495468996E+03 -0.12023240926E+03 -0.14056756082E+04  0.14192923250E+04  0.00000000000E+00 0. -1.
          1    1    1    2  503    0  0.45100406344E+01  0.28962717849E+02  0.14463561320E+04  0.14466531167E+04  0.00000000000E+00 0. -1.
<mgrwt>
<rscale>  0 0.75812041E+02</rscale>
<asrwt>0</asrwt>
<pdfrwt beam="1">  1        2 0.50251849E+00 0.29311764E+02</pdfrwt>
<pdfrwt beam="2">  1        2 0.39371608E+00 0.19608051E+03</pdfrwt>
<totfact> 0.13036001E+00</totfact>
</mgrwt>
</event>
<event>
13    1  0.2101801E-008  0.7365684E+02  0.7546771E-02  0.1382956E+00
          2   -1    0    0  502    0  0.00000000000E+00  0.00000000000E+00  0.22487806149E+04  0.22487806149E+04  0.00000000000E+00 0. -1.
          2   -1    0    0  503    0 -0.00000000000E+00 -0.00000000000E+00 -0.35594195425E+04  0.35594195425E+04  0.00000000000E+00 0. -1.
         24    2    1    2    0    0  0.36472092101E+02  0.63686650780E+01 -0.91079115533E+03  0.91533655239E+03  0.83244832342E+02 0.  0.
         25    2    1    2    0    0 -0.21571896122E+03  0.12413478242E+03  0.16771648975E+03  0.32511006980E+03  0.12499448835E+03 0.  0.
         24    2    1    2    0    0  0.53814649527E+02 -0.10175469122E+03  0.33377192864E+02  0.14414723908E+03  0.80089673756E+02 0.  0.
        -11    1    5    5    0    0  0.57766449139E+02 -0.29393095528E+02  0.30470344849E+02  0.71619540811E+02  0.00000000000E+00 0.  1.
         12    1    5    5    0    0 -0.39517996115E+01 -0.72361595687E+02  0.29068480149E+01  0.72527698267E+02  0.00000000000E+00 0. -1.
        -13    1    3    3    0    0 -0.19067795655E+02  0.10099523816E+02 -0.85872145429E+02  0.88541552804E+02  0.00000000000E+00 0.  1.
         14    1    3    3    0    0  0.55539887756E+02 -0.37308587380E+01 -0.82491900990E+03  0.82679499958E+03  0.00000000000E+00 0. -1.
          5    1    4    4  501    0 -0.70873266538E+02  0.33774735997E+02 -0.92284944510E+01  0.79189695108E+02  0.47000000000E+01 0. -1.
         -5    1    4    4    0  501 -0.14484569468E+03  0.90360046425E+02  0.17694498420E+03  0.24592037469E+03  0.47000000000E+01 0. -1.
          1    1    1    2  502    0  0.71948754433E+02 -0.15595543174E+02  0.19103214475E+04  0.19117394898E+04  0.00000000000E+00 0. -1.
          1    1    1    2  503    0  0.53483465156E+02 -0.13153213111E+02 -0.25112629023E+04  0.25118668063E+04  0.00000000000E+00 0. -1.
<mgrwt>
<rscale>  0 0.63693062E+02</rscale>
<asrwt>0</asrwt>
<pdfrwt beam="1">  1        2 0.33070304E+00 0.73656844E+02</pdfrwt>
<pdfrwt beam="2">  1        2 0.52344404E+00 0.55077110E+02</pdfrwt>
<totfact> 0.17616913E+00</totfact>
</mgrwt>
</event>
<event>
13    1  0.2101801E-008  0.4020924E+03  0.7546771E-02  0.1250876E+00
          2   -1    0    0  503    0  0.00000000000E+00  0.00000000000E+00  0.21844063082E+04  0.21844063082E+04  0.00000000000E+00 0. -1.
          2   -1    0    0  502    0 -0.00000000000E+00 -0.00000000000E+00 -0.29777214682E+04  0.29777214682E+04  0.00000000000E+00 0. -1.
         24    2    1    2    0    0  0.38533386564E+03  0.45078928165E+03 -0.34024724303E+03  0.68833836947E+03  0.79676596512E+02 0.  0.
         25    2    1    2    0    0 -0.72733668173E+02 -0.74022449708E+02  0.55265952635E+03  0.57604472706E+03  0.12500186382E+03 0.  0.
         24    2    1    2    0    0 -0.61852385895E+02 -0.10059378126E+03  0.17630392790E+02  0.14398014234E+03  0.80465049367E+02 0.  0.
        -11    1    3    3    0    0  0.38646331749E+02  0.27179887794E+02 -0.77558936274E+01  0.47879422972E+02  0.00000000000E+00 0.  1.
         12    1    3    3    0    0  0.34668753389E+03  0.42360939386E+03 -0.33249134940E+03  0.64045894649E+03  0.00000000000E+00 0. -1.
        -11    1    5    5    0    0  0.39173542312E+01 -0.70330462766E+02  0.10758790333E+02  0.71256376742E+02  0.00000000000E+00 0.  1.
         12    1    5    5    0    0 -0.65769740126E+02 -0.30263318494E+02  0.68716024568E+01  0.72723765598E+02  0.00000000000E+00 0. -1.
          5    1    4    4  501    0 -0.98867130496E+02 -0.61160284136E+02  0.30171600118E+03  0.32337273419E+03  0.47000000000E+01 0. -1.
         -5    1    4    4    0  501  0.26133462323E+02 -0.12862165572E+02  0.25094352517E+03  0.25267199287E+03  0.47000000000E+01 0. -1.
          1    1    1    2  502    0 -0.23484773970E+03 -0.30522947941E+03 -0.23728328205E+04  0.24038831273E+04  0.00000000000E+00 0. -1.
          1    1    1    2  503    0 -0.15900071868E+02  0.29056428725E+02  0.13494749843E+04  0.13498814102E+04  0.00000000000E+00 0. -1.
<mgrwt>
<rscale>  0 0.11540466E+03</rscale>
<asrwt>0</asrwt>
<pdfrwt beam="1">  1        2 0.32123623E+00 0.33122324E+02</pdfrwt>
<pdfrwt beam="2">  1        2 0.43790021E+00 0.40209242E+03</pdfrwt>
<totfact> 0.32480902E+00</totfact>
</mgrwt>
</event>
<event>
13    1  0.2101801E-008  0.1544423E+03  0.7546771E-02  0.1223953E+00
          2   -1    0    0  502    0  0.00000000000E+00  0.00000000000E+00  0.13558648161E+04  0.13558648161E+04  0.00000000000E+00 0. -1.
          2   -1    0    0  503    0 -0.00000000000E+00 -0.00000000000E+00 -0.16066583764E+04  0.16066583764E+04  0.00000000000E+00 0. -1.
         24    2    1    2    0    0 -0.43085297184E+02  0.10571237450E+03 -0.77053922198E+03  0.78278501126E+03  0.77396590954E+02 0.  0.
         25    2    1    2    0    0  0.31098947078E+01 -0.84253720813E+01  0.19884154381E+03  0.23503903384E+03  0.12499891816E+03 0.  0.
         24    2    1    2    0    0  0.18847177350E+03  0.18532461671E+03  0.38807312096E+02  0.27416407082E+03  0.61588207377E+02 0.  0.
        -13    1    5    5    0    0  0.96726230348E+02  0.53172753517E+02  0.20254295544E+02  0.11222095099E+03  0.00000000000E+00 0.  1.
         14    1    5    5    0    0  0.91745543155E+02  0.13215186320E+03  0.18553016552E+02  0.16194311982E+03  0.00000000000E+00 0. -1.
        -13    1    3    3    0    0 -0.17797994629E+02  0.10770533569E+03 -0.68208450851E+03  0.69076514438E+03  0.00000000000E+00 0.  1.
         14    1    3    3    0    0 -0.25287302555E+02 -0.19929611930E+01 -0.88454713473E+02  0.92019866879E+02  0.00000000000E+00 0. -1.
          5    1    4    4  501    0 -0.42669913179E+02 -0.38450291449E+02  0.49713272837E+02  0.76109433708E+02  0.47000000000E+01 0.  1.
         -5    1    4    4    0  501  0.45779807887E+02  0.30024919368E+02  0.14912827098E+03  0.15892960013E+03  0.47000000000E+01 0.  1.
          1    1    1    2  502    0 -0.48786456614E+02 -0.10246411160E+03  0.95762416954E+03  0.96432518509E+03  0.00000000000E+00 0. -1.
          1    1    1    2  503    0 -0.99709914412E+02 -0.18014750753E+03 -0.67552736381E+03  0.70620989143E+03  0.00000000000E+00 0. -1.
<mgrwt>
<rscale>  0 0.13238956E+03</rscale>
<asrwt>0</asrwt>
<pdfrwt beam="1">  1        2 0.19939189E+00 0.11348574E+03</pdfrwt>
<pdfrwt beam="2">  1        2 0.23627329E+00 0.15444228E+03</pdfrwt>
<totfact> 0.40013196E+01</totfact>
</mgrwt>
</event>
<event>
13    1  0.2101801E-008  0.6298380E+02  0.7546771E-02  0.1397232E+00
          2   -1    0    0  502    0  0.00000000000E+00  0.00000000000E+00  0.18745409922E+04  0.18745409922E+04  0.00000000000E+00 0. -1.
          2   -1    0    0  503    0 -0.00000000000E+00 -0.00000000000E+00 -0.31674015539E+04  0.31674015539E+04  0.00000000000E+00 0. -1.
         24    2    1    2    0    0  0.10921268314E+04  0.29514509592E+03  0.57533339343E+03  0.12718215424E+04  0.81669324573E+02 0.  0.
         25    2    1    2    0    0 -0.89877123502E+03 -0.31311641878E+03 -0.15778593388E+02  0.96005471188E+03  0.12499784471E+03 0.  0.
         24    2    1    2    0    0 -0.11457000301E+03  0.21641070246E+02 -0.45554799636E+03  0.48207046952E+03  0.10617598170E+03 0.  0.
        -11    1    3    3    0    0  0.49195871924E+03  0.93692985289E+02  0.23794322489E+03  0.55445354648E+03  0.00000000000E+00 0.  1.
         12    1    3    3    0    0  0.60016811217E+03  0.20145211063E+03  0.33739016854E+03  0.71736799592E+03  0.00000000000E+00 0. -1.
        -13    1    5    5    0    0 -0.21501977844E+02  0.54667413081E+02 -0.18172203474E+03  0.19098104360E+03  0.00000000000E+00 0.  1.
         14    1    5    5    0    0 -0.93068025167E+02 -0.33026342835E+02 -0.27382596161E+03  0.29108942592E+03  0.00000000000E+00 0. -1.
          5    1    4    4  501    0 -0.21184108355E+03 -0.84666867791E+02  0.48466840334E+02  0.23327290411E+03  0.47000000000E+01 0. -1.
         -5    1    4    4    0  501 -0.68693015147E+03 -0.22844955099E+03 -0.64245433721E+02  0.72678180777E+03  0.47000000000E+01 0. -1.
          1    1    1    2  502    0 -0.37267466316E+02  0.43696896098E+02  0.46325801925E+03  0.46680432214E+03  0.00000000000E+00 0. -1.
          1    1    1    2  503    0 -0.41518127061E+02 -0.47366643478E+02 -0.18601253846E+04  0.18611915002E+04  0.00000000000E+00 0. -1.
<mgrwt>
<rscale>  0 0.60143182E+02</rscale>
<asrwt>0</asrwt>
<pdfrwt beam="1">  1        2 0.27566780E+00 0.57430678E+02</pdfrwt>
<pdfrwt beam="2">  1        2 0.46579434E+00 0.62983800E+02</pdfrwt>
<totfact> 0.44006940E+00</totfact>
</mgrwt>
</event>
<event>
13    1  0.2101801E-008  0.5457953E+02  0.7546771E-02  0.1428712E+00
         -1   -1    0    0    0  501 -0.00000000000E+00  0.00000000000E+00  0.88791752817E+03  0.88791752817E+03  0.00000000000E+00 0.  1.
          2   -1    0    0  503    0  0.00000000000E+00 -0.00000000000E+00 -0.17913338523E+04  0.17913338523E+04  0.00000000000E+00 0. -1.
         24    2    1    2    0    0  0.17549170534E+03  0.15596317264E+03  0.25189834881E+03  0.35266809514E+03  0.76158763958E+02 0.  0.
         25    2    1    2    0    0 -0.74403759129E+02 -0.62319452038E+02 -0.67797329962E+03  0.69619876079E+03  0.12500114419E+03 0.  0.
         24    2    1    2    0    0 -0.10062059439E+03 -0.97001778064E+02  0.56905623793E+02  0.17117858822E+03  0.80808477788E+02 0.  0.
        -11    1    5    5    0    0 -0.91757520162E+02 -0.63932400616E+02  0.72790661476E+02  0.13343640715E+03  0.00000000000E+00 0.  1.
         12    1    5    5    0    0 -0.88630742261E+01 -0.33069377449E+02 -0.15885037684E+02  0.37742181068E+02  0.00000000000E+00 0. -1.
        -13    1    3    3    0    0  0.17829383936E+03  0.13330865058E+03  0.21641284446E+03  0.31047448965E+03  0.00000000000E+00 0.  1.
         14    1    3    3    0    0 -0.28021340233E+01  0.22654522057E+02  0.35485504349E+02  0.42193605483E+02  0.00000000000E+00 0. -1.
          5    1    4    4  502    0  0.32623213920E+02  0.21861275892E+01 -0.12889135950E+03  0.13305685173E+03  0.47000000000E+01 0. -1.
         -5    1    4    4    0  502 -0.10702697305E+03 -0.64505579627E+02 -0.54908194012E+03  0.56314190905E+03  0.47000000000E+01 0. -1.
          1    1    1    2  503    0  0.35745988081E+02 -0.37618037042E+02 -0.99443103635E+03  0.99578410231E+03  0.00000000000E+00 0. -1.
         -2    1    1    2    0  501 -0.36213339905E+02  0.40976094504E+02  0.46018403921E+03  0.46342183403E+03  0.00000000000E+00 0.  1.
<mgrwt>
<rscale>  0 0.53219361E+02</rscale>
<asrwt>0</asrwt>
<pdfrwt beam="2">  1        2 0.26343145E+00 0.51893086E+02</pdfrwt>
<pdfrwt beam="1">  1       -1 0.13057611E+00 0.54579533E+02</pdfrwt>
<totfact> 0.83843059E+00</totfact>
</mgrwt>
</event>
<event>
13    1  0.2101801E-008  0.1510671E+03  0.7546771E-02  0.1291205E+00
          2   -1    0    0  502    0  0.00000000000E+00  0.00000000000E+00  0.43632906994E+03  0.43632906994E+03  0.00000000000E+00 0. -1.
          2   -1    0    0  503    0 -0.00000000000E+00 -0.00000000000E+00 -0.19115131800E+04  0.19115131800E+04  0.00000000000E+00 0. -1.
         24    2    1    2    0    0  0.68489614024E+02  0.13977350877E+03 -0.56966350199E+03  0.59622494671E+03  0.82098846550E+02 0.  0.
         25    2    1    2    0    0  0.60410987953E+02 -0.22067666896E+03  0.82094580230E+02  0.27333486446E+03  0.12499899334E+03 0.  0.
         24    2    1    2    0    0 -0.53355063738E+02 -0.10828947176E+02  0.28172868563E+02  0.10141581744E+03  0.80792503247E+02 0.  0.
        -11    1    3    3    0    0  0.83153048405E+02  0.83660591330E+02 -0.38645226803E+03  0.40405306516E+03  0.00000000000E+00 0.  1.
         12    1    3    3    0    0 -0.14663434381E+02  0.56112917435E+02 -0.18321123396E+03  0.19217188155E+03  0.00000000000E+00 0. -1.
        -11    1    5    5    0    0 -0.44501280656E+02 -0.39393541213E+02  0.37276974383E+02  0.70155455158E+02  0.00000000000E+00 0.  1.
         12    1    5    5    0    0 -0.88537830821E+01  0.28564594036E+02 -0.91041058199E+01  0.31260362284E+02  0.00000000000E+00 0. -1.
          5    1    4    4  501    0  0.62699448577E+02 -0.10540981707E+03 -0.13522381213E+02  0.12348034329E+03  0.47000000000E+01 0. -1.
         -5    1    4    4    0  501 -0.22884606239E+01 -0.11526685189E+03  0.95616961443E+02  0.14985452116E+03  0.47000000000E+01 0. -1.
          1    1    1    2  502    0  0.56702735042E+02  0.18759696162E+02  0.17067723629E+03  0.18082545547E+03  0.00000000000E+00 0. -1.
          1    1    1    2  503    0 -0.13224827328E+03  0.72972411208E+02 -0.11864652931E+04  0.11960411658E+04  0.00000000000E+00 0. -1.
<mgrwt>
<rscale>  0 0.94987093E+02</rscale>
<asrwt>0</asrwt>
<pdfrwt beam="1">  1        2 0.64166040E-01 0.59725425E+02</pdfrwt>
<pdfrwt beam="2">  1        2 0.28110488E+00 0.15106712E+03</pdfrwt>
<totfact> 0.11615841E+02</totfact>
</mgrwt>
</event>
<event>
13    1  0.2101801E-008  0.5396711E+02  0.7546771E-02  0.1438851E+00
          2   -1    0    0  502    0  0.00000000000E+00  0.00000000000E+00  0.11539416215E+04  0.11539416215E+04  0.00000000000E+00 0. -1.
          2   -1    0    0  503    0 -0.00000000000E+00 -0.00000000000E+00 -0.25229397047E+04  0.25229397047E+04  0.00000000000E+00 0. -1.
         24    2    1    2    0    0 -0.32220543323E+03  0.38782719673E+03 -0.39231366611E+03  0.64389521566E+03  0.80403733808E+02 0.  0.
         25    2    1    2    0    0  0.58327218359E+03  0.13275291815E+03 -0.11415378242E+03  0.62168037362E+03  0.12500249391E+03 0.  0.
         24    2    1    2    0    0 -0.26105397632E+03 -0.51507226203E+03  0.37893472312E+03  0.69403571368E+03  0.68157419337E+02 0.  0.
        -11    1    5    5    0    0 -0.16145232747E+02 -0.59436128849E+02  0.21345956438E+02  0.65184137712E+02  0.00000000000E+00 0.  1.
         12    1    5    5    0    0 -0.24490874358E+03 -0.45563613318E+03  0.35758876669E+03  0.62885157597E+03  0.00000000000E+00 0. -1.
        -11    1    3    3    0    0 -0.21109833276E+03  0.19192839329E+03 -0.22416095434E+03  0.36283212053E+03  0.00000000000E+00 0.  1.
         12    1    3    3    0    0 -0.11110710047E+03  0.19589880345E+03 -0.16815271177E+03  0.28106309513E+03  0.00000000000E+00 0. -1.
          5    1    4    4  501    0  0.25632701872E+02 -0.12133829013E+02 -0.26080398799E+02  0.38814203757E+02  0.47000000000E+01 0. -1.
         -5    1    4    4    0  501  0.55763948172E+03  0.14488674716E+03 -0.88073383624E+02  0.58286616987E+03  0.47000000000E+01 0. -1.
          1    1    1    2  502    0 -0.41981881690E+01 -0.53947162318E+02  0.23442002732E+03  0.24058401925E+03  0.00000000000E+00 0. -1.
          1    1    1    2  503    0  0.41854141307E+01  0.48439309471E+02 -0.14758853851E+04  0.14766860040E+04  0.00000000000E+00 0. -1.
<mgrwt>
<rscale>  0 0.51223721E+02</rscale>
<asrwt>0</asrwt>
<pdfrwt beam="1">  1        2 0.16969730E+00 0.53967107E+02</pdfrwt>
<pdfrwt beam="2">  1        2 0.37102054E+00 0.48619794E+02</pdfrwt>
<totfact> 0.21878772E+01</totfact>
</mgrwt>
</event>
<event>
13    1  0.2101801E-008  0.5261389E+02  0.7546771E-02  0.1506188E+00
          2   -1    0    0  502    0  0.00000000000E+00  0.00000000000E+00  0.16735652540E+04  0.16735652540E+04  0.00000000000E+00 0. -1.
          2   -1    0    0  503    0 -0.00000000000E+00 -0.00000000000E+00 -0.42278716186E+03  0.42278716186E+03  0.00000000000E+00 0. -1.
         24    2    1    2    0    0  0.31931677599E+03 -0.19292509665E+03  0.11828985171E+03  0.39937267009E+03  0.79515685553E+02 0.  0.
         25    2    1    2    0    0 -0.19304990908E+03  0.33594406655E+03  0.36818404899E+03  0.54891807385E+03  0.12499949848E+03 0.  0.
         24    2    1    2    0    0 -0.15323565290E+03 -0.11265126741E+03  0.77257689975E+02  0.22995581235E+03  0.10363132540E+03 0.  0.
        -11    1    5    5    0    0 -0.13766134376E+03 -0.87717720095E+02  0.10118551325E+03  0.19205091011E+03  0.00000000000E+00 0.  1.
         12    1    5    5    0    0 -0.15574309137E+02 -0.24933547311E+02 -0.23927823273E+02  0.37904902232E+02  0.00000000000E+00 0. -1.
        -11    1    3    3    0    0  0.15424675457E+03 -0.64206019291E+02  0.20489156936E+02  0.16832789359E+03  0.00000000000E+00 0.  1.
         12    1    3    3    0    0  0.16507002142E+03 -0.12871907736E+03  0.97800694776E+02  0.23104477650E+03  0.00000000000E+00 0. -1.
          5    1    4    4  501    0 -0.81969337292E+02  0.22019364439E+03  0.15279683465E+03  0.28030907221E+03  0.47000000000E+01 0. -1.
         -5    1    4    4    0  501 -0.11108057179E+03  0.11575042217E+03  0.21538721434E+03  0.26860900164E+03  0.47000000000E+01 0. -1.
          1    1    1    2  502    0  0.53931270348E+01 -0.52392392585E+02  0.79963725506E+03  0.80136994472E+03  0.00000000000E+00 0. -1.
          1    1    1    2  503    0  0.21575658945E+02  0.22024690093E+02 -0.11259075357E+03  0.11673591488E+03  0.00000000000E+00 0. -1.
<mgrwt>
<rscale>  0 0.40276267E+02</rscale>
<asrwt>0</asrwt>
<pdfrwt beam="1">  1        2 0.24611253E+00 0.52613891E+02</pdfrwt>
<pdfrwt beam="2">  1        2 0.62174583E-01 0.30831737E+02</pdfrwt>
<totfact> 0.17244520E+02</totfact>
</mgrwt>
</event>
<event>
13    1  0.2101801E-008  0.1389160E+03  0.7546771E-02  0.1216052E+00
          2   -1    0    0  502    0  0.00000000000E+00  0.00000000000E+00  0.13606119258E+04  0.13606119258E+04  0.00000000000E+00 0. -1.
          2   -1    0    0  503    0 -0.00000000000E+00 -0.00000000000E+00 -0.17468731179E+04  0.17468731179E+04  0.00000000000E+00 0. -1.
         24    2    1    2    0    0 -0.17014827294E+03  0.29397346613E+03 -0.86543731186E+03  0.93309323661E+03  0.79438113465E+02 0.  0.
         25    2    1    2    0    0  0.16957467109E+03 -0.16684653392E+03 -0.80786166740E+01  0.26885748238E+03  0.12500298729E+03 0.  0.
         24    2    1    2    0    0  0.37822941040E+02 -0.90730573095E+02 -0.14466150050E+03  0.19353318622E+03  0.82858509986E+02 0.  0.
        -11    1    5    5    0    0  0.24914244711E+02 -0.97052316579E+02 -0.82680609693E+02  0.12990748617E+03  0.00000000000E+00 0.  1.
         12    1    5    5    0    0  0.12908696328E+02  0.63217434836E+01 -0.61980890810E+02  0.63625700053E+02  0.00000000000E+00 0. -1.
        -13    1    3    3    0    0 -0.65241282148E+02  0.71216394190E+02 -0.32826451238E+03  0.34217800892E+03  0.00000000000E+00 0.  1.
         14    1    3    3    0    0 -0.10490699079E+03  0.22275707194E+03 -0.53717279948E+03  0.59091522769E+03  0.00000000000E+00 0. -1.
          5    1    4    4  501    0  0.20491053627E+02 -0.27120166278E+02 -0.49589147782E+02  0.60303899339E+02  0.47000000000E+01 0. -1.
         -5    1    4    4    0  501  0.14908361746E+03 -0.13972636764E+03  0.41510531108E+02  0.20855358304E+03  0.47000000000E+01 0. -1.
          1    1    1    2  502    0 -0.12211812891E+03  0.62699762157E+02  0.11599716944E+04  0.11680661066E+04  0.00000000000E+00 0. -1.
          1    1    1    2  503    0  0.84868789719E+02 -0.99096121280E+02 -0.52805545750E+03  0.54393503189E+03  0.00000000000E+00 0. -1.
<mgrwt>
<rscale>  0 0.13799560E+03</rscale>
<asrwt>0</asrwt>
<pdfrwt beam="1">  1        2 0.20008999E+00 0.13708129E+03</pdfrwt>
<pdfrwt beam="2">  1        2 0.25689310E+00 0.13891601E+03</pdfrwt>
<totfact> 0.33783668E+01</totfact>
</mgrwt>
</event>
<event>
13    1  0.2101801E-008  0.6958256E+02  0.7546771E-02  0.1516464E+00
          2   -1    0    0  502    0  0.00000000000E+00  0.00000000000E+00  0.58026189735E+03  0.58026189735E+03  0.00000000000E+00 0. -1.
          2   -1    0    0  503    0 -0.00000000000E+00 -0.00000000000E+00 -0.96605085273E+03  0.96605085273E+03  0.00000000000E+00 0. -1.
         24    2    1    2    0    0 -0.49409922756E+01 -0.24422034269E+02 -0.18009652732E+03  0.19856249748E+03  0.79821407488E+02 0.  0.
         25    2    1    2    0    0 -0.47954797285E+02  0.14244255057E+03  0.86090093422E+02  0.21360072113E+03  0.12499688430E+03 0.  0.
         24    2    1    2    0    0  0.67766199720E+02 -0.67655732528E+02 -0.10259110172E+03  0.16097790233E+03  0.78863140423E+02 0.  0.
        -11    1    5    5    0    0  0.62106987653E+02 -0.93582025951E+01 -0.36401946882E+02  0.72594459899E+02  0.00000000000E+00 0.  1.
         12    1    5    5    0    0  0.56592120671E+01 -0.58297529932E+02 -0.66189154841E+02  0.88383442431E+02  0.00000000000E+00 0. -1.
        -13    1    3    3    0    0  0.19899420447E+02  0.21429359807E+02 -0.44144752925E+02  0.52952465539E+02  0.00000000000E+00 0.  1.
         14    1    3    3    0    0 -0.24840412722E+02 -0.45851394076E+02 -0.13595177439E+03  0.14561003194E+03  0.00000000000E+00 0. -1.
          5    1    4    4  501    0  0.87319179466E-01  0.33146591493E+02 -0.31494847277E+02  0.45964329183E+02  0.47000000000E+01 0.  1.
         -5    1    4    4    0  501 -0.48042116465E+02  0.10929595908E+03  0.11758494070E+03  0.16763639194E+03  0.47000000000E+01 0.  1.
          1    1    1    2  502    0 -0.10102050401E+02  0.19258519404E+02  0.38959082936E+03  0.39019732996E+03  0.00000000000E+00 0. -1.
          1    1    1    2  503    0 -0.47683597589E+01 -0.69623303179E+02 -0.57878224912E+03  0.58297429918E+03  0.00000000000E+00 0. -1.
<mgrwt>
<rscale>  0 0.38900231E+02</rscale>
<asrwt>0</asrwt>
<pdfrwt beam="1">  1        2 0.85332633E-01 0.21747230E+02</pdfrwt>
<pdfrwt beam="2">  1        2 0.14206630E+00 0.69582565E+02</pdfrwt>
<totfact> 0.28100558E+02</totfact>
</mgrwt>
</event>
<event>
13    1  0.2101801E-008  0.1608186E+03  0.7546771E-02  0.1221610E+00
          2   -1    0    0  503    0  0.00000000000E+00  0.00000000000E+00  0.23607874450E+04  0.23607874450E+04  0.00000000000E+00 0. -1.
         -3   -1    0    0    0  501 -0.00000000000E+00 -0.00000000000E+00 -0.11973280240E+04  0.11973280240E+04  0.00000000000E+00 0.  1.
         24    2    1    2    0    0  0.20660580661E+03 -0.26968731363E+03 -0.52208228464E+03  0.62723910647E+03  0.73768409833E+02 0.  0.
         25    2    1    2    0    0 -0.51520530556E+03  0.15243984991E+03 -0.13294282303E+03  0.56742686865E+03  0.12500016941E+03 0.  0.
         24    2    1    2    0    0  0.19186187121E+03  0.11342523234E+03  0.65327106788E+03  0.69497635775E+03  0.80949297357E+02 0.  0.
        -11    1    3    3    0    0  0.16109183148E+03 -0.23722440201E+03 -0.39229239139E+03  0.48592110000E+03  0.00000000000E+00 0.  1.
         12    1    3    3    0    0  0.45513975124E+02 -0.32462911619E+02 -0.12978989326E+03  0.14131800647E+03  0.00000000000E+00 0. -1.
        -11    1    5    5    0    0  0.46466527291E+02  0.53200153732E+02  0.12293775838E+03  0.14178535521E+03  0.00000000000E+00 0.  1.
         12    1    5    5    0    0  0.14539534392E+03  0.60225078608E+02  0.53033330950E+03  0.55319100254E+03  0.00000000000E+00 0. -1.
          5    1    4    4  502    0 -0.38876440709E+03  0.93663041756E+02 -0.44836515788E+02  0.40242133735E+03  0.47000000000E+01 0.  1.
         -5    1    4    4    0  502 -0.12644089848E+03  0.58776808151E+02 -0.88106307240E+02  0.16500553130E+03  0.47000000000E+01 0.  1.
          1    1    1    2  503    0  0.11251293473E+03  0.11542940179E+03  0.13995920814E+04  0.14088438883E+04  0.00000000000E+00 0. -1.
         -4    1    1    2    0  501  0.42246930132E+01 -0.11160717040E+03 -0.23437862066E+03  0.25962924785E+03  0.00000000000E+00 0.  1.
<mgrwt>
<rscale>  0 0.13402000E+03</rscale>
<asrwt>0</asrwt>
<pdfrwt beam="1">  1        2 0.34717462E+00 0.16081857E+03</pdfrwt>
<pdfrwt beam="2">  1       -3 0.17607765E+00 0.11168710E+03</pdfrwt>
<totfact> 0.82141378E-01</totfact>
</mgrwt>
</event>
<event>
13    1  0.2101801E-008  0.7673000E+02  0.7546771E-02  0.1379893E+00
          2   -1    0    0  503    0  0.00000000000E+00  0.00000000000E+00  0.12091172643E+04  0.12091172643E+04  0.00000000000E+00 0. -1.
          2   -1    0    0  502    0 -0.00000000000E+00 -0.00000000000E+00 -0.16199679184E+04  0.16199679184E+04  0.00000000000E+00 0. -1.
         24    2    1    2    0    0  0.29632393062E+02  0.79428226541E+01 -0.35893613853E+03  0.36893874157E+03  0.79620828548E+02 0.  0.
         25    2    1    2    0    0  0.46321918463E+01 -0.99842150131E+02 -0.11047484173E+02  0.16041487350E+03  0.12498388932E+03 0.  0.
         24    2    1    2    0    0  0.10865522966E+02  0.45745428093E+02 -0.25882977207E+02  0.11309231936E+03  0.99545167678E+02 0.  0.
        -11    1    3    3    0    0  0.56462912338E+02  0.33005214393E+01 -0.27279046032E+03  0.27859215558E+03  0.00000000000E+00 0.  1.
         12    1    3    3    0    0 -0.26830519276E+02  0.46423012148E+01 -0.86145678215E+02  0.90346585991E+02  0.00000000000E+00 0. -1.
        -13    1    5    5    0    0  0.21125156330E+01 -0.87364255288E+01 -0.51483663049E+02  0.52262370921E+02  0.00000000000E+00 0.  1.
         14    1    5    5    0    0  0.87530073332E+01  0.54481853622E+02  0.25600685842E+02  0.60829948438E+02  0.00000000000E+00 0. -1.
          5    1    4    4  501    0  0.38053723797E+02  0.13674759110E+02 -0.10272014412E+02  0.41984392477E+02  0.47000000000E+01 0. -1.
         -5    1    4    4    0  501 -0.33421531951E+02 -0.11351690924E+03 -0.77546976075E+00  0.11843048102E+03  0.47000000000E+01 0. -1.
          1    1    1    2  502    0 -0.91292008586E+02  0.17739866195E+02 -0.10981684903E+04  0.11020993453E+04  0.00000000000E+00 0. -1.
          1    1    1    2  503    0  0.46161900711E+02  0.28414033189E+02  0.10831844362E+04  0.10845399030E+04  0.00000000000E+00 0. -1.
<mgrwt>
<rscale>  0 0.64491997E+02</rscale>
<asrwt>0</asrwt>
<pdfrwt beam="1">  1        2 0.17781136E+00 0.54205889E+02</pdfrwt>
<pdfrwt beam="2">  1        2 0.23823057E+00 0.76729997E+02</pdfrwt>
<totfact> 0.52129068E+01</totfact>
</mgrwt>
</event>
<event>
13    1  0.2101801E-008  0.8255086E+02  0.7546771E-02  0.1331215E+00
          2   -1    0    0  502    0  0.00000000000E+00  0.00000000000E+00  0.93113964933E+03  0.93113964933E+03  0.00000000000E+00 0. -1.
          2   -1    0    0  503    0 -0.00000000000E+00 -0.00000000000E+00 -0.12470804447E+04  0.12470804447E+04  0.00000000000E+00 0. -1.
         24    2    1    2    0    0 -0.18668314100E+01  0.70434600292E+02 -0.60768505731E+03  0.61685260211E+03  0.79129551153E+02 0.  0.
         25    2    1    2    0    0  0.21902997621E+03 -0.95479074773E+02 -0.62095973379E+02  0.27671450606E+03  0.12499849502E+03 0.  0.
         24    2    1    2    0    0 -0.10376778639E+03 -0.71725226340E+02  0.17159102835E+03  0.22906059239E+03  0.84338676716E+02 0.  0.
        -11    1    3    3    0    0 -0.86714736830E+01  0.27327668973E+02 -0.49771053924E+03  0.49853563245E+03  0.00000000000E+00 0.  1.
         12    1    3    3    0    0  0.68046422730E+01  0.43106931319E+02 -0.10997451807E+03  0.11831696966E+03  0.00000000000E+00 0. -1.
        -13    1    5    5    0    0 -0.11309991548E+03 -0.44160104677E+02  0.12605012718E+03  0.17501525731E+03  0.00000000000E+00 0.  1.
         14    1    5    5    0    0  0.93321290864E+01 -0.27565121663E+02  0.45540901166E+02  0.54045335086E+02  0.00000000000E+00 0. -1.
          5    1    4    4  501    0  0.95365275455E+02 -0.65642667974E+02  0.29885451644E+02  0.11966087849E+03  0.47000000000E+01 0. -1.
         -5    1    4    4    0  501  0.12366470075E+03 -0.29836406799E+02 -0.91981425023E+02  0.15705362757E+03  0.47000000000E+01 0. -1.
          1    1    1    2  502    0 -0.41854392900E+02  0.70923098316E+02  0.61283289514E+03  0.61834135673E+03  0.00000000000E+00 0. -1.
          1    1    1    2  503    0 -0.71540965505E+02  0.25846602505E+02 -0.43058368817E+03  0.43725103674E+03  0.00000000000E+00 0. -1.
<mgrwt>
<rscale>  0 0.79242531E+02</rscale>
<asrwt>0</asrwt>
<pdfrwt beam="1">  1        2 0.13693230E+00 0.82550857E+02</pdfrwt>
<pdfrwt beam="2">  1        2 0.18339418E+00 0.76066790E+02</pdfrwt>
<totfact> 0.11083313E+02</totfact>
</mgrwt>
</event>
<event>
13    1  0.2101801E-008  0.4823331E+02  0.7546771E-02  0.1480560E+00
         -1   -1    0    0    0  501 -0.00000000000E+00  0.00000000000E+00  0.44591944041E+03  0.44591944041E+03  0.00000000000E+00 0.  1.
          2   -1    0    0  503    0  0.00000000000E+00 -0.00000000000E+00 -0.10239466668E+04  0.10239466668E+04  0.00000000000E+00 0. -1.
         24    2    1    2    0    0 -0.16831432280E+03  0.84809110732E+02  0.19229572804E+03  0.28194863588E+03  0.83636653038E+02 0.  0.
         25    2    1    2    0    0  0.13576129824E+03 -0.19754759715E+03 -0.22448650074E+03  0.35139093637E+03  0.12500087161E+03 0.  0.
         24    2    1    2    0    0  0.71020905769E+02  0.53324362714E+02 -0.36256596461E+03  0.38361014758E+03  0.88403675956E+02 0.  0.
        -11    1    3    3    0    0 -0.16194051968E+03  0.48841079959E+02  0.15014092304E+03  0.22616913975E+03  0.00000000000E+00 0.  1.
         12    1    3    3    0    0 -0.63738031198E+01  0.35968030773E+02  0.42154804998E+02  0.55779496129E+02  0.00000000000E+00 0. -1.
        -11    1    5    5    0    0 -0.11208892198E+02  0.18467292036E+02 -0.19476469963E+02  0.29086302990E+02  0.00000000000E+00 0.  1.
         12    1    5    5    0    0  0.82229797967E+02  0.34857070678E+02 -0.34308949464E+03  0.35452384459E+03  0.00000000000E+00 0. -1.
          5    1    4    4  502    0  0.14172301694E+03 -0.10248017016E+03 -0.14388496940E+03  0.22652278743E+03  0.47000000000E+01 0. -1.
         -5    1    4    4    0  502 -0.59617186921E+01 -0.95067426991E+02 -0.80601531343E+02  0.12486814894E+03  0.47000000000E+01 0. -1.
          1    1    1    2  503    0  0.55183233192E+01  0.39792070732E+02 -0.31246448339E+03  0.31503636959E+03  0.00000000000E+00 0. -1.
         -2    1    1    2    0  501 -0.43986204537E+02  0.19622052976E+02  0.12919399428E+03  0.13788001781E+03  0.00000000000E+00 0.  1.
<mgrwt>
<rscale>  0 0.44018988E+02</rscale>
<asrwt>0</asrwt>
<pdfrwt beam="2">  1        2 0.15058039E+00 0.40172886E+02</pdfrwt>
<pdfrwt beam="1">  1       -1 0.65576390E-01 0.48233312E+02</pdfrwt>
<totfact> 0.86757593E+01</totfact>
</mgrwt>
</event>
<event>
13    1  0.2101801E-008  0.6608761E+02  0.7546771E-02  0.1380823E+00
          2   -1    0    0  502    0  0.00000000000E+00  0.00000000000E+00  0.24174308516E+04  0.24174308516E+04  0.00000000000E+00 0. -1.
          2   -1    0    0  503    0 -0.00000000000E+00 -0.00000000000E+00 -0.16773231399E+04  0.16773231399E+04  0.00000000000E+00 0. -1.
         24    2    1    2    0    0  0.32524068195E+03  0.36330750933E+03 -0.29958724332E+03  0.58178857422E+03  0.10464980268E+03 0.  0.
         25    2    1    2    0    0 -0.32409887885E+03 -0.28725971655E+03  0.10109626836E+04  0.11069026654E+04  0.12501893873E+03 0.  0.
         24    2    1    2    0    0 -0.18055661807E+02 -0.77780160753E+02 -0.11644646692E+03  0.16211436450E+03  0.79658817389E+02 0.  0.
        -11    1    5    5    0    0  0.13240819457E+02 -0.65589014169E+02 -0.38400619078E+02  0.77148205586E+02  0.00000000000E+00 0.  1.
         12    1    5    5    0    0 -0.31296481264E+02 -0.12191146584E+02 -0.78045847844E+02  0.84966158912E+02  0.00000000000E+00 0. -1.
        -13    1    3    3    0    0  0.15778617124E+03  0.19719271277E+03 -0.95909858976E+02  0.27014837192E+03  0.00000000000E+00 0.  1.
         14    1    3    3    0    0  0.16745451072E+03  0.16611479656E+03 -0.20367738434E+03  0.31164020230E+03  0.00000000000E+00 0. -1.
          5    1    4    4  501    0 -0.30896893874E+03 -0.23509982741E+03  0.80345472121E+03  0.89235380483E+03  0.47000000000E+01 0.  1.
         -5    1    4    4    0  501 -0.15129940105E+02 -0.52159889138E+02  0.20750796238E+03  0.21454886057E+03  0.47000000000E+01 0.  1.
          1    1    1    2  502    0 -0.11725554178E+02  0.61349130777E+02  0.11927034593E+04  0.11943377857E+04  0.00000000000E+00 0. -1.
          1    1    1    2  503    0  0.28639412882E+02 -0.59616762804E+02 -0.10475247210E+04  0.10496106018E+04  0.00000000000E+00 0. -1.
<mgrwt>
<rscale>  0 0.64248011E+02</rscale>
<asrwt>0</asrwt>
<pdfrwt beam="1">  1        2 0.35550454E+00 0.62459623E+02</pdfrwt>
<pdfrwt beam="2">  1        2 0.24666517E+00 0.66087606E+02</pdfrwt>
<totfact> 0.12926355E+01</totfact>
</mgrwt>
</event>
<event>
13    1  0.2101801E-008  0.1239434E+03  0.7546771E-02  0.1315458E+00
          2   -1    0    0  502    0  0.00000000000E+00  0.00000000000E+00  0.39559799367E+03  0.39559799367E+03  0.00000000000E+00 0. -1.
          2   -1    0    0  503    0 -0.00000000000E+00 -0.00000000000E+00 -0.70586427685E+03  0.70586427685E+03  0.00000000000E+00 0. -1.
         24    2    1    2    0    0  0.19609542063E+02 -0.76097733345E+02 -0.18842582459E+03  0.21952009402E+03  0.80680735883E+02 0.  0.
         25    2    1    2    0    0 -0.78749060458E+02 -0.15092491133E+03 -0.11747411712E+03  0.24167571491E+03  0.12500895808E+03 0.  0.
         24    2    1    2    0    0  0.14070184330E+02  0.74601862767E+02 -0.23404396174E+02  0.11297201657E+03  0.80321247198E+02 0.  0.
        -11    1    3    3    0    0  0.35253128626E+01 -0.89763743854E+02 -0.13584433228E+03  0.16286079993E+03  0.00000000000E+00 0.  1.
         12    1    3    3    0    0  0.16084229201E+02  0.13666010509E+02 -0.52581492318E+02  0.56659294089E+02  0.00000000000E+00 0. -1.
        -13    1    5    5    0    0 -0.19556433678E+02  0.14754558146E+02  0.20110140264E+02  0.31694933755E+02  0.00000000000E+00 0.  1.
         14    1    5    5    0    0  0.33626618007E+02  0.59847304621E+02 -0.43514536438E+02  0.81277082812E+02  0.00000000000E+00 0. -1.
          5    1    4    4  501    0 -0.43524439470E+02  0.71324045606E+01 -0.53951153095E+01  0.44681599067E+02  0.47000000000E+01 0. -1.
         -5    1    4    4    0  501 -0.35224620988E+02 -0.15805731589E+03 -0.11207900181E+03  0.19699411584E+03  0.47000000000E+01 0. -1.
          1    1    1    2  502    0 -0.45565439398E+01  0.12186328639E+03  0.25584467514E+03  0.28342180660E+03  0.00000000000E+00 0. -1.
          1    1    1    2  503    0  0.49625878004E+02  0.30557495516E+02 -0.23680662043E+03  0.24387263844E+03  0.00000000000E+00 0. -1.
<mgrwt>
<rscale>  0 0.84990264E+02</rscale>
<asrwt>0</asrwt>
<pdfrwt beam="1">  1        2 0.58176176E-01 0.12394337E+03</pdfrwt>
<pdfrwt beam="2">  1        2 0.10380357E+00 0.58279399E+02</pdfrwt>
<totfact> 0.60579922E+02</totfact>
</mgrwt>
</event>
<event>
13    1  0.2101801E-008  0.9726771E+02  0.7546771E-02  0.1329197E+00
          2   -1    0    0  503    0  0.00000000000E+00  0.00000000000E+00  0.20644701437E+04  0.20644701437E+04  0.00000000000E+00 0. -1.
         -3   -1    0    0    0  501 -0.00000000000E+00 -0.00000000000E+00 -0.21066141091E+04  0.21066141091E+04  0.00000000000E+00 0.  1.
         24    2    1    2    0    0 -0.13839542322E+03  0.29350808154E+02 -0.12470269079E+04  0.12576417321E+04  0.81066972533E+02 0.  0.
         25    2    1    2    0    0  0.60727753109E+02  0.47067277905E+02 -0.76116103863E+01  0.14691737011E+03  0.12499435339E+03 0.  0.
         24    2    1    2    0    0  0.19181567412E+02  0.40479436789E+02  0.11969569122E+04  0.12004651114E+04  0.80025726001E+02 0.  0.
        -11    1    5    5    0    0  0.39318085868E+02  0.19417563759E+02  0.10335925694E+04  0.10345223793E+04  0.00000000000E+00 0.  1.
         12    1    5    5    0    0 -0.20136518456E+02  0.21061873029E+02  0.16336434275E+03  0.16594273214E+03  0.00000000000E+00 0. -1.
        -13    1    3    3    0    0 -0.37262663279E+02  0.39220159083E+02 -0.62846961969E+03  0.63079377758E+03  0.00000000000E+00 0.  1.
         14    1    3    3    0    0 -0.10113275994E+03 -0.98693509286E+01 -0.61855728824E+03  0.62684795449E+03  0.00000000000E+00 0. -1.
          5    1    4    4  502    0  0.20354101427E+02 -0.14836857883E+02 -0.53833918892E+02  0.59620488257E+02  0.47000000000E+01 0.  1.
         -5    1    4    4    0  502  0.40373651682E+02  0.61904135788E+02  0.46222308505E+02  0.87296881854E+02  0.47000000000E+01 0.  1.
          1    1    1    2  503    0  0.62671874228E+02 -0.19760843252E+02  0.78637464854E+03  0.78911554452E+03  0.00000000000E+00 0. -1.
         -4    1    1    2    0  501 -0.41857715313E+01 -0.97136679595E+02 -0.77083700780E+03  0.77694449468E+03  0.00000000000E+00 0.  1.
<mgrwt>
<rscale>  0 0.79948701E+02</rscale>
<asrwt>0</asrwt>
<pdfrwt beam="1">  1        2 0.30359855E+00 0.65713429E+02</pdfrwt>
<pdfrwt beam="2">  1       -3 0.30979619E+00 0.97267710E+02</pdfrwt>
<totfact> 0.23199676E-01</totfact>
</mgrwt>
</event>
<event>
13    1  0.2101801E-008  0.2453071E+03  0.7546771E-02  0.1151153E+00
          2   -1    0    0  503    0  0.00000000000E+00  0.00000000000E+00  0.41974942532E+03  0.41974942532E+03  0.00000000000E+00 0. -1.
          2   -1    0    0  502    0 -0.00000000000E+00 -0.00000000000E+00 -0.18188330828E+04  0.18188330828E+04  0.00000000000E+00 0. -1.
         24    2    1    2    0    0  0.43652207229E+02 -0.17502689993E+03  0.58693540010E+01  0.19810234752E+03  0.81671046789E+02 0.  0.
         25    2    1    2    0    0  0.22293616309E+03 -0.23751467318E+02 -0.50506895397E+03  0.56655684596E+03  0.12500938538E+03 0.  0.
         24    2    1    2    0    0 -0.33463884768E+03  0.20339767773E+03 -0.19472657027E+03  0.44486735252E+03  0.81453977715E+02 0.  0.
        -13    1    3    3    0    0  0.43714341496E+02 -0.90942696748E+02 -0.32038926280E+02  0.10586789193E+03  0.00000000000E+00 0.  1.
         14    1    3    3    0    0 -0.62134266826E-01 -0.84084203181E+02  0.37908280281E+02  0.92234455596E+02  0.00000000000E+00 0. -1.
        -13    1    5    5    0    0 -0.64122509575E+02  0.73431087293E+02 -0.69226693834E+02  0.11956653359E+03  0.00000000000E+00 0.  1.
         14    1    5    5    0    0 -0.27051633810E+03  0.12996659044E+03 -0.12549987644E+03  0.32530081893E+03  0.00000000000E+00 0. -1.
          5    1    4    4  501    0  0.23307690035E+03 -0.10411269565E+02 -0.49281388182E+03  0.54527135275E+03  0.47000000000E+01 0.  1.
         -5    1    4    4    0  501 -0.10140737257E+02 -0.13340197754E+02 -0.12255072147E+02  0.21285493218E+02  0.47000000000E+01 0.  1.
          1    1    1    2  502    0  0.18456227411E+03 -0.16932861183E+03 -0.77584876637E+03  0.81527708179E+03  0.00000000000E+00 0. -1.
          1    1    1    2  503    0 -0.11651179676E+03  0.16470930135E+03  0.70691279117E+02  0.21377888034E+03  0.00000000000E+00 0. -1.
<mgrwt>
<rscale>  0 0.19833314E+03</rscale>
<asrwt>0</asrwt>
<pdfrwt beam="1">  1        2 0.61727855E-01 0.16035425E+03</pdfrwt>
<pdfrwt beam="2">  1        2 0.26747546E+00 0.24530710E+03</pdfrwt>
<totfact> 0.12806508E+02</totfact>
</mgrwt>
</event>
<event>
13    1  0.2101801E-008  0.1183454E+03  0.7546771E-02  0.1251967E+00
          2   -1    0    0  502    0  0.00000000000E+00  0.00000000000E+00  0.24615477806E+04  0.24615477806E+04  0.00000000000E+00 0. -1.
          2   -1    0    0  503    0 -0.00000000000E+00 -0.00000000000E+00 -0.13172202113E+04  0.13172202113E+04  0.00000000000E+00 0. -1.
         24    2    1    2    0    0  0.50242212490E+02 -0.26925651824E+00 -0.57079920340E+03  0.57859338684E+03  0.80213616512E+02 0.  0.
         25    2    1    2    0    0  0.99745879076E+02 -0.63582890073E+02 -0.16362298283E+03  0.23746505466E+03  0.12500058948E+03 0.  0.
         24    2    1    2    0    0  0.74971770632E+02  0.90216692574E+01  0.95951768913E+03  0.96581706652E+03  0.80163915320E+02 0.  0.
        -11    1    5    5    0    0  0.91172609027E+01  0.22835145389E+02  0.79138242922E+02  0.82869957187E+02  0.00000000000E+00 0.  1.
         12    1    5    5    0    0  0.65854509729E+02 -0.13813476131E+02  0.88037944621E+03  0.88294710934E+03  0.00000000000E+00 0. -1.
        -13    1    3    3    0    0  0.22055435182E+02  0.21170757747E+02 -0.48234950701E+03  0.48331738031E+03  0.00000000000E+00 0.  1.
         14    1    3    3    0    0  0.28186777308E+02 -0.21440014265E+02 -0.88449696397E+02  0.95276006525E+02  0.00000000000E+00 0. -1.
          5    1    4    4  501    0  0.62489803207E+02 -0.47547260861E+02 -0.17765340769E+03  0.19428983706E+03  0.47000000000E+01 0. -1.
         -5    1    4    4    0  501  0.37256075869E+02 -0.16035629212E+02  0.14030424855E+02  0.43175217603E+02  0.47000000000E+01 0. -1.
          1    1    1    2  502    0 -0.13636023925E+03 -0.10121621603E+03  0.14379860645E+04  0.14479788530E+04  0.00000000000E+00 0. -1.
          1    1    1    2  503    0 -0.88599622944E+02  0.15604669336E+03 -0.51875399808E+03  0.54891363092E+03  0.00000000000E+00 0. -1.
<mgrwt>
<rscale>  0 0.11477921E+03</rscale>
<asrwt>0</asrwt>
<pdfrwt beam="1">  1        2 0.36199232E+00 0.11132053E+03</pdfrwt>
<pdfrwt beam="2">  1        2 0.19370885E+00 0.11834535E+03</pdfrwt>
<totfact> 0.16425223E+01</totfact>
</mgrwt>
</event>
<event>
13    1  0.2101801E-008  0.5990242E+02  0.7546771E-02  0.1419992E+00
          2   -1    0    0  503    0  0.00000000000E+00  0.00000000000E+00  0.23964746301E+04  0.23964746301E+04  0.00000000000E+00 0. -1.
          2   -1    0    0  502    0 -0.00000000000E+00 -0.00000000000E+00 -0.19321278136E+04  0.19321278136E+04  0.00000000000E+00 0. -1.
         24    2    1    2    0    0 -0.87946890488E+02  0.28160977701E+02 -0.27532866054E+03  0.30139713618E+03  0.80663908733E+02 0.  0.
         25    2    1    2    0    0  0.25571249118E+03  0.34048940824E+02  0.47976709285E+03  0.55888058770E+03  0.12499135731E+03 0.  0.
         24    2    1    2    0    0 -0.14384681378E+03 -0.75542698910E+02 -0.50382655531E+02  0.18818851628E+03  0.80485405445E+02 0.  0.
        -13    1    3    3    0    0 -0.15731585919E+02  0.18053948314E+02 -0.17893222743E+03  0.18052747674E+03  0.00000000000E+00 0.  1.
         14    1    3    3    0    0 -0.72215304569E+02  0.10107029387E+02 -0.96396433109E+02  0.12086965944E+03  0.00000000000E+00 0. -1.
        -13    1    5    5    0    0 -0.29850312195E+02 -0.58833728567E+02 -0.21798759789E+02  0.69481182226E+02  0.00000000000E+00 0.  1.
         14    1    5    5    0    0 -0.11399650158E+03 -0.16708970343E+02 -0.28583895742E+02  0.11870733406E+03  0.00000000000E+00 0. -1.
          5    1    4    4  501    0  0.14341081560E+03 -0.32765357414E+02  0.18494152283E+03  0.23635923410E+03  0.47000000000E+01 0. -1.
         -5    1    4    4    0  501  0.11230167558E+03  0.66814298237E+02  0.29482557003E+03  0.32252135360E+03  0.47000000000E+01 0. -1.
          1    1    1    2  502    0  0.29099011970E+02  0.41322895625E+02 -0.14839917279E+04  0.14848521080E+04  0.00000000000E+00 0. -1.
          1    1    1    2  503    0 -0.53017798886E+02 -0.27990115240E+02  0.17942827676E+04  0.17952840956E+04  0.00000000000E+00 0. -1.
<mgrwt>
<rscale>  0 0.55022662E+02</rscale>
<asrwt>0</asrwt>
<pdfrwt beam="1">  1        2 0.35242274E+00 0.59902415E+02</pdfrwt>
<pdfrwt beam="2">  1        2 0.28413644E+00 0.50540421E+02</pdfrwt>
<totfact> 0.10374900E+01</totfact>
</mgrwt>
</event>
<event>
13    1  0.2101801E-008  0.3301695E+02  0.7546771E-02  0.1638885E+00
          2   -1    0    0  502    0  0.00000000000E+00  0.00000000000E+00  0.10429379297E+04  0.10429379297E+04  0.00000000000E+00 0. -1.
          2   -1    0    0  503    0 -0.00000000000E+00 -0.00000000000E+00 -0.25174405590E+04  0.25174405590E+04  0.00000000000E+00 0. -1.
         24    2    1    2    0    0 -0.11314479957E+03  0.10528953418E+03 -0.95462978628E+03  0.97103284494E+03  0.87744660404E+02 0.  0.
         25    2    1    2    0    0  0.26720118336E+03  0.92431552790E+02 -0.73031357232E+02  0.31764393896E+03  0.12499611386E+03 0.  0.
         24    2    1    2    0    0 -0.12461211578E+03 -0.18624226549E+03 -0.24822815326E+01  0.23823302701E+03  0.80835960972E+02 0.  0.
        -11    1    5    5    0    0 -0.95163945222E+01 -0.79940263908E+02 -0.11381270647E+02  0.81305232796E+02  0.00000000000E+00 0.  1.
         12    1    5    5    0    0 -0.11509572125E+03 -0.10630200158E+03  0.88989891140E+01  0.15692779422E+03  0.00000000000E+00 0. -1.
        -11    1    3    3    0    0 -0.45894243781E+02  0.34797948516E+00 -0.15183557379E+03  0.15862044058E+03  0.00000000000E+00 0.  1.
         12    1    3    3    0    0 -0.67250555789E+02  0.10494155470E+03 -0.80279421248E+03  0.81241240435E+03  0.00000000000E+00 0. -1.
          5    1    4    4  501    0  0.97972523723E+02  0.65171097607E+02  0.24627056589E+02  0.12030988856E+03  0.47000000000E+01 0. -1.
         -5    1    4    4    0  501  0.16922865963E+03  0.27260455183E+02 -0.97658413821E+02  0.19733405040E+03  0.47000000000E+01 0. -1.
          1    1    1    2  502    0 -0.16515470655E+02 -0.28592060855E+02  0.79411880105E+03  0.79480496783E+03  0.00000000000E+00 0. -1.
          1    1    1    2  503    0 -0.12928797355E+02  0.17113239369E+02 -0.12384780053E+04  0.12386637099E+04  0.00000000000E+00 0. -1.
<mgrwt>
<rscale>  0 0.26611041E+02</rscale>
<asrwt>0</asrwt>
<pdfrwt beam="1">  1        2 0.15337323E+00 0.33016947E+02</pdfrwt>
<pdfrwt beam="2">  1        2 0.37021184E+00 0.21448001E+02</pdfrwt>
<totfact> 0.29328578E+01</totfact>
</mgrwt>
</event>
<event>
13    1  0.2101801E-008  0.1017625E+03  0.7546771E-02  0.1371474E+00
          2   -1    0    0  502    0  0.00000000000E+00  0.00000000000E+00  0.23348103413E+04  0.23348103413E+04  0.00000000000E+00 0. -1.
          2   -1    0    0  503    0 -0.00000000000E+00 -0.00000000000E+00 -0.12779579322E+03  0.12779579322E+03  0.00000000000E+00 0. -1.
         24    2    1    2    0    0 -0.65807467182E+02 -0.20098854347E+02  0.65204934445E+01  0.10323106529E+03  0.76678219352E+02 0.  0.
         25    2    1    2    0    0  0.46947884901E+02 -0.38474590995E+02  0.33337761804E+03  0.36117732561E+03  0.12499610504E+03 0.  0.
         24    2    1    2    0    0  0.94376124157E+02  0.13176802050E+02  0.43670447534E+03  0.45411286136E+03  0.80169889293E+02 0.  0.
        -11    1    3    3    0    0  0.13890363314E+02  0.31724250953E+01 -0.11454761144E+02  0.18281630858E+02  0.00000000000E+00 0.  1.
         12    1    3    3    0    0 -0.79697830495E+02 -0.23271279442E+02  0.17975254588E+02  0.84949434430E+02  0.00000000000E+00 0. -1.
        -13    1    5    5    0    0 -0.94725441412E+00 -0.50060031014E+01 -0.14847027883E+01  0.53067598726E+01  0.00000000000E+00 0.  1.
         14    1    5    5    0    0  0.95323378571E+02  0.18182805152E+02  0.43818917812E+03  0.44880610149E+03  0.00000000000E+00 0. -1.
          5    1    4    4  501    0  0.37351517929E+02  0.30404648773E+01  0.16167280954E+02  0.41083467377E+02  0.47000000000E+01 0.  1.
         -5    1    4    4    0  501  0.95963669712E+01 -0.41515055872E+02  0.31721033708E+03  0.32009385823E+03  0.47000000000E+01 0.  1.
          1    1    1    2  502    0 -0.17939875215E+02 -0.39952804428E+02  0.14400175586E+04  0.14406833916E+04  0.00000000000E+00 0. -1.
          1    1    1    2  503    0 -0.57576666661E+02  0.85349447719E+02 -0.96055973672E+01  0.10340149066E+03  0.00000000000E+00 0. -1.
<mgrwt>
<rscale>  0 0.66758996E+02</rscale>
<asrwt>0</asrwt>
<pdfrwt beam="1">  1        2 0.34335444E+00 0.43795727E+02</pdfrwt>
<pdfrwt beam="2">  1        2 0.18793500E-01 0.10176252E+03</pdfrwt>
<totfact> 0.31190442E+02</totfact>
</mgrwt>
</event>
<event>
13    1  0.2101801E-008  0.4603522E+02  0.7546771E-02  0.1474483E+00
          2   -1    0    0  502    0  0.00000000000E+00  0.00000000000E+00  0.55397671653E+03  0.55397671653E+03  0.00000000000E+00 0. -1.
          2   -1    0    0  503    0 -0.00000000000E+00 -0.00000000000E+00 -0.14781646840E+04  0.14781646840E+04  0.00000000000E+00 0. -1.
         24    2    1    2    0    0 -0.36819730831E+02 -0.25631767947E+03 -0.73074974458E+03  0.77846065779E+03  0.70365908900E+02 0.  0.
         25    2    1    2    0    0  0.24987048934E+01  0.36115436725E+03  0.16337653767E+03  0.41563932986E+03  0.12500175581E+03 0.  0.
         24    2    1    2    0    0 -0.28139443909E+02 -0.63489667163E+02 -0.32601658751E+03  0.34381575301E+03  0.84259661444E+02 0.  0.
        -11    1    5    5    0    0 -0.34290416931E+02 -0.77153947156E+02 -0.20254255317E+03  0.21943575392E+03  0.00000000000E+00 0.  1.
         12    1    5    5    0    0  0.61509730223E+01  0.13664279993E+02 -0.12347403434E+03  0.12437999909E+03  0.00000000000E+00 0. -1.
        -13    1    3    3    0    0  0.71729347197E+01 -0.32913308746E+01 -0.54813263551E+02  0.55378495037E+02  0.00000000000E+00 0.  1.
         14    1    3    3    0    0 -0.43992665551E+02 -0.25302634859E+03 -0.67593648103E+03  0.72308216275E+03  0.00000000000E+00 0. -1.
          5    1    4    4  501    0  0.15057017245E+02  0.36370651989E+03  0.16837890607E+03  0.40110184790E+03  0.47000000000E+01 0.  1.
         -5    1    4    4    0  501 -0.12558312352E+02 -0.25521526347E+01 -0.50023684033E+01  0.14537481963E+02  0.47000000000E+01 0.  1.
          1    1    1    2  502    0  0.18523382861E+02 -0.42108957912E+02  0.22755674542E+03  0.23216018702E+03  0.00000000000E+00 0. -1.
          1    1    1    2  503    0  0.43937086985E+02  0.76193729045E+00 -0.25835491842E+03  0.26206547280E+03  0.00000000000E+00 0. -1.
<mgrwt>
<rscale>  0 0.44977302E+02</rscale>
<asrwt>0</asrwt>
<pdfrwt beam="1">  1        2 0.81467166E-01 0.46035223E+02</pdfrwt>
<pdfrwt beam="2">  1        2 0.21737715E+00 0.43943693E+02</pdfrwt>
<totfact> 0.16366202E+02</totfact>
</mgrwt>
</event>
<event>
13    1  0.2101801E-008  0.8973251E+02  0.7546771E-02  0.1449257E+00
          2   -1    0    0  502    0  0.00000000000E+00  0.00000000000E+00  0.57904669286E+03  0.57904669286E+03  0.00000000000E+00 0. -1.
          2   -1    0    0  503    0 -0.00000000000E+00 -0.00000000000E+00 -0.23422381109E+04  0.23422381109E+04  0.00000000000E+00 0. -1.
         24    2    1    2    0    0  0.33740505938E+02 -0.40465652698E+02 -0.89682236233E+03  0.90195799931E+03  0.80386517273E+02 0.  0.
         25    2    1    2    0    0 -0.32189464958E+02 -0.59877948195E+02  0.21195787355E+03  0.25527169764E+03  0.12496387126E+03 0.  0.
         24    2    1    2    0    0  0.45614941430E+01 -0.88319094749E+01 -0.17535549230E+03  0.19324182212E+03  0.80585627025E+02 0.  0.
        -11    1    5    5    0    0 -0.27518969613E+02 -0.88064573516E+01 -0.14884928450E+03  0.15162769165E+03  0.00000000000E+00 0.  1.
         12    1    5    5    0    0  0.32080463756E+02 -0.25452123311E-01 -0.26506207796E+02  0.41614130465E+02  0.00000000000E+00 0. -1.
        -13    1    3    3    0    0  0.46098117989E+02 -0.58357078473E+02 -0.69617739903E+03  0.70013824064E+03  0.00000000000E+00 0.  1.
         14    1    3    3    0    0 -0.12357612052E+02  0.17891425775E+02 -0.20064496330E+03  0.20181975867E+03  0.00000000000E+00 0. -1.
          5    1    4    4  501    0  0.32839471289E+02 -0.64788410125E+02  0.14167206881E+03  0.15927659602E+03  0.47000000000E+01 0.  1.
         -5    1    4    4    0  501 -0.65028936247E+02  0.49104619300E+01  0.70285804747E+02  0.95995101618E+02  0.47000000000E+01 0.  1.
          1    1    1    2  502    0  0.25910064479E+02  0.78233509354E+01  0.33108420425E+03  0.33218863100E+03  0.00000000000E+00 0. -1.
          1    1    1    2  503    0 -0.32022599602E+02  0.10135215943E+03 -0.12340556412E+04  0.12386246536E+04  0.00000000000E+00 0. -1.
<mgrwt>
<rscale>  0 0.49281305E+02</rscale>
<asrwt>0</asrwt>
<pdfrwt beam="1">  1        2 0.85153926E-01 0.27065407E+02</pdfrwt>
<pdfrwt beam="2">  1        2 0.34444678E+00 0.89732514E+02</pdfrwt>
<totfact> 0.56926814E+01</totfact>
</mgrwt>
</event>
<event>
13    1  0.2101801E-008  0.1049606E+03  0.7546771E-02  0.1446322E+00
         -1   -1    0    0    0  501 -0.00000000000E+00  0.00000000000E+00  0.12000485224E+04  0.12000485224E+04  0.00000000000E+00 0.  1.
          2   -1    0    0  503    0  0.00000000000E+00 -0.00000000000E+00 -0.11399218124E+04  0.11399218124E+04  0.00000000000E+00 0. -1.
         24    2    1    2    0    0  0.11677550453E+03  0.10517405646E+03  0.31081247891E+03  0.35904540391E+03  0.87241643766E+02 0.  0.
         25    2    1    2    0    0  0.36887560912E+02 -0.23090495776E+03 -0.18667324277E+03  0.32426584767E+03  0.12499459482E+03 0.  0.
         24    2    1    2    0    0 -0.11614003262E+03  0.19344395029E+02  0.15628770319E+03  0.21171122102E+03  0.80827483818E+02 0.  0.
        -11    1    5    5    0    0  0.12453068839E+02 -0.14057968035E+01  0.14864931017E+02  0.19442771467E+02  0.00000000000E+00 0.  1.
         12    1    5    5    0    0 -0.12859310146E+03  0.20750191833E+02  0.14142277218E+03  0.19226844955E+03  0.00000000000E+00 0. -1.
        -13    1    3    3    0    0  0.92326112192E+02  0.24903384284E+02  0.15686014395E+03  0.18371008220E+03  0.00000000000E+00 0.  1.
         14    1    3    3    0    0  0.24449392338E+02  0.80270672181E+02  0.15395233496E+03  0.17533532171E+03  0.00000000000E+00 0. -1.
          5    1    4    4  502    0 -0.23067932910E+02  0.28207372656E+01 -0.19233798211E+02  0.30530559790E+02  0.47000000000E+01 0.  1.
         -5    1    4    4    0  502  0.59955493822E+02 -0.23372569502E+03 -0.16743944456E+03  0.29373528788E+03  0.47000000000E+01 0.  1.
          1    1    1    2  503    0  0.16780578856E+02  0.16659598042E+02 -0.82796300863E+03  0.82830059380E+03  0.00000000000E+00 0. -1.
         -2    1    1    2    0  501 -0.54303611680E+02  0.89726908219E+02  0.60766277933E+03  0.61664726844E+03  0.00000000000E+00 0.  1.
<mgrwt>
<rscale>  0 0.49818587E+02</rscale>
<asrwt>0</asrwt>
<pdfrwt beam="2">  1        2 0.16763556E+00 0.23645931E+02</pdfrwt>
<pdfrwt beam="1">  1       -1 0.17647772E+00 0.10496062E+03</pdfrwt>
<totfact> 0.80356535E+00</totfact>
</mgrwt>
</event>
<event>
13    1  0.2101801E-008  0.1323654E+03  0.7546771E-02  0.1274126E+00
         -1   -1    0    0    0  501 -0.00000000000E+00  0.00000000000E+00  0.16361104523E+04  0.16361104523E+04  0.00000000000E+00 0.  1.
          2   -1    0    0  503    0  0.00000000000E+00 -0.00000000000E+00 -0.21565974337E+04  0.21565974337E+04  0.00000000000E+00 0. -1.
         24    2    1    2    0    0 -0.22568448417E+03 -0.17267224502E+03 -0.23430973065E+03  0.37580581651E+03  0.74697866397E+02 0.  0.
         25    2    1    2    0    0  0.32694583144E+03  0.38615207069E+03 -0.10283037556E+04  0.11528401289E+04  0.12499900242E+03 0.  0.
         24    2    1    2    0    0 -0.17376309924E+02 -0.45286024909E+02 -0.13558885235E+03  0.16309042108E+03  0.76559704590E+02 0.  0.
        -11    1    3    3    0    0 -0.61803541904E+02 -0.55763524220E+02 -0.28686623353E+02  0.88046412674E+02  0.00000000000E+00 0.  1.
         12    1    3    3    0    0 -0.16388094227E+03 -0.11690872080E+03 -0.20562310730E+03  0.28775940383E+03  0.00000000000E+00 0. -1.
        -13    1    5    5    0    0  0.29717522210E+02 -0.10269323901E+02 -0.55723711976E+02  0.63982202338E+02  0.00000000000E+00 0.  1.
         14    1    5    5    0    0 -0.47093832135E+02 -0.35016701008E+02 -0.79865140379E+02  0.99108218742E+02  0.00000000000E+00 0. -1.
          5    1    4    4  502    0  0.27381348156E+03  0.23636813120E+03 -0.69240997628E+03  0.78121532331E+03  0.47000000000E+01 0.  1.
         -5    1    4    4    0  502  0.53132349878E+02  0.14978393949E+03 -0.33589377935E+03  0.37162480560E+03  0.47000000000E+01 0.  1.
          1    1    1    2  503    0 -0.92270295615E+02 -0.88495980568E+02 -0.60385228356E+03  0.61723814398E+03  0.00000000000E+00 0. -1.
         -2    1    1    2    0  501  0.83852582708E+01 -0.79697820188E+02  0.14815676409E+04  0.14837333755E+04  0.00000000000E+00 0.  1.
<mgrwt>
<rscale>  0 0.10299255E+03</rscale>
<asrwt>0</asrwt>
<pdfrwt beam="2">  1        2 0.31714668E+00 0.13236543E+03</pdfrwt>
<pdfrwt beam="1">  1       -1 0.24060448E+00 0.80137726E+02</pdfrwt>
<totfact> 0.88700289E-01</totfact>
</mgrwt>
</event>
<event>
13    1  0.2101801E-008  0.1000447E+03  0.7546771E-02  0.1286084E+00
          2   -1    0    0  502    0  0.00000000000E+00  0.00000000000E+00  0.22553331741E+04  0.22553331741E+04  0.00000000000E+00 0. -1.
          2   -1    0    0  503    0 -0.00000000000E+00 -0.00000000000E+00 -0.21508174501E+04  0.21508174501E+04  0.00000000000E+00 0. -1.
         24    2    1    2    0    0 -0.11406033014E+03 -0.19774884700E+02 -0.97538417976E+03  0.98532920950E+03  0.78093200626E+02 0.  0.
         25    2    1    2    0    0  0.18274928499E+03 -0.95540796367E+02  0.34063482079E+03  0.41735034168E+03  0.12499552646E+03 0.  0.
         24    2    1    2    0    0  0.94131985569E+01 -0.56029194773E+02  0.38361219819E+03  0.39821331188E+03  0.90485602063E+02 0.  0.
        -11    1    3    3    0    0 -0.29471369213E+02 -0.35955898978E+02 -0.20827521944E+03  0.21340092621E+03  0.00000000000E+00 0.  1.
         12    1    3    3    0    0 -0.84588960924E+02  0.16181014278E+02 -0.76710896032E+03  0.77192828328E+03  0.00000000000E+00 0. -1.
        -13    1    5    5    0    0  0.31850077642E+02  0.78555312479E+01  0.19665884157E+03  0.19937611889E+03  0.00000000000E+00 0.  1.
         14    1    5    5    0    0 -0.22436879085E+02 -0.63884726021E+02  0.18695335662E+03  0.19883719298E+03  0.00000000000E+00 0. -1.
          5    1    4    4  501    0  0.10103594515E+03 -0.82662897300E+02  0.29530333492E+03  0.32290488757E+03  0.47000000000E+01 0.  1.
         -5    1    4    4    0  501  0.81713339836E+02 -0.12877899067E+02  0.45331485874E+02  0.94445454115E+02  0.47000000000E+01 0.  1.
          1    1    1    2  502    0 -0.95000935732E+02  0.78240059371E+02  0.14758994113E+04  0.14810218625E+04  0.00000000000E+00 0. -1.
          1    1    1    2  503    0  0.16898782323E+02  0.93104816469E+02 -0.11202465266E+04  0.11242358987E+04  0.00000000000E+00 0. -1.
<mgrwt>
<rscale>  0 0.97297626E+02</rscale>
<asrwt>0</asrwt>
<pdfrwt beam="1">  1        2 0.33166665E+00 0.10004471E+03</pdfrwt>
<pdfrwt beam="2">  1        2 0.31629668E+00 0.94625978E+02</pdfrwt>
<totfact> 0.83724336E+00</totfact>
</mgrwt>
</event>
<event>
13    1  0.2101801E-008  0.1867817E+03  0.7546771E-02  0.1204853E+00
          2   -1    0    0  503    0  0.00000000000E+00  0.00000000000E+00  0.82670483620E+03  0.82670483620E+03  0.00000000000E+00 0. -1.
          2   -1    0    0  502    0 -0.00000000000E+00 -0.00000000000E+00 -0.19770387399E+04  0.19770387399E+04  0.00000000000E+00 0. -1.
         24    2    1    2    0    0 -0.11236095635E+03  0.52318200433E+02 -0.85598043081E+03  0.86871263946E+03  0.81221754546E+02 0.  0.
         25    2    1    2    0    0  0.24684275450E+03 -0.71873519639E+02  0.98216795949E+02  0.30227287127E+03  0.12500080570E+03 0.  0.
         24    2    1    2    0    0 -0.76326180531E+02  0.10033012987E+03 -0.18858509788E+03  0.24012751709E+03  0.78772231943E+02 0.  0.
        -11    1    3    3    0    0 -0.59221548073E+02  0.65553836160E+02 -0.63147493386E+03  0.63762456766E+03  0.00000000000E+00 0.  1.
         12    1    3    3    0    0 -0.53139408273E+02 -0.13235635727E+02 -0.22450549696E+03  0.23108807180E+03  0.00000000000E+00 0. -1.
        -13    1    5    5    0    0 -0.48718650415E+02  0.53553103215E+01 -0.51588374494E+02  0.71158601938E+02  0.00000000000E+00 0.  1.
         14    1    5    5    0    0 -0.27607530116E+02  0.94974819553E+02 -0.13699672339E+03  0.16896891515E+03  0.00000000000E+00 0. -1.
          5    1    4    4  501    0  0.14822904375E+03 -0.10502168418E+03  0.63341513165E+02  0.19244646229E+03  0.47000000000E+01 0. -1.
         -5    1    4    4    0  501  0.98613710754E+02  0.33148164537E+02  0.34875282784E+02  0.10982640898E+03  0.47000000000E+01 0. -1.
          1    1    1    2  502    0 -0.15391726733E+03 -0.17295366031E+02 -0.78511779120E+03  0.80024971160E+03  0.00000000000E+00 0. -1.
          1    1    1    2  503    0  0.95761649698E+02 -0.63479444638E+02  0.58113262020E+03  0.59238083671E+03  0.00000000000E+00 0. -1.
<mgrwt>
<rscale>  0 0.14649072E+03</rscale>
<asrwt>0</asrwt>
<pdfrwt beam="1">  1        2 0.12157424E+00 0.11489096E+03</pdfrwt>
<pdfrwt beam="2">  1        2 0.29074098E+00 0.18678171E+03</pdfrwt>
<totfact> 0.51191055E+01</totfact>
</mgrwt>
</event>
<event>
13    1  0.2101801E-008  0.9230387E+02  0.7546771E-02  0.1386104E+00
          2   -1    0    0  503    0  0.00000000000E+00  0.00000000000E+00  0.17044964311E+04  0.17044964311E+04  0.00000000000E+00 0. -1.
          2   -1    0    0  502    0 -0.00000000000E+00 -0.00000000000E+00 -0.20228471421E+04  0.20228471421E+04  0.00000000000E+00 0. -1.
         24    2    1    2    0    0  0.48735457354E+01  0.19781042855E+02 -0.10976354308E+03  0.13704010894E+03  0.79479022174E+02 0.  0.
         25    2    1    2    0    0  0.38636084053E+01 -0.43709019725E+02  0.20453489083E+03  0.24368905003E+03  0.12499770263E+03 0.  0.
         24    2    1    2    0    0  0.78504506260E+01 -0.23333640398E+02 -0.25307971836E+03  0.26674740923E+03  0.80614813376E+02 0.  0.
        -11    1    5    5    0    0  0.23150365215E+02 -0.31508528043E+02 -0.52710453028E+02  0.65628641670E+02  0.00000000000E+00 0.  1.
         12    1    5    5    0    0 -0.15299914589E+02  0.81748876456E+01 -0.20036926534E+03  0.20111876756E+03  0.00000000000E+00 0. -1.
        -11    1    3    3    0    0 -0.32569389511E+02  0.10707524043E+02 -0.83907270323E+02  0.90641305249E+02  0.00000000000E+00 0.  1.
         12    1    3    3    0    0  0.37442935246E+02  0.90735188123E+01 -0.25856272753E+02  0.46398803693E+02  0.00000000000E+00 0. -1.
          5    1    4    4  501    0 -0.37739850265E+02 -0.64760208568E+02  0.75864884847E+02  0.10675088601E+03  0.47000000000E+01 0. -1.
         -5    1    4    4    0  501  0.41603458670E+02  0.21051188843E+02  0.12867000598E+03  0.13693816401E+03  0.47000000000E+01 0. -1.
          1    1    1    2  502    0 -0.27597188300E+02  0.88666988126E+02 -0.16183089757E+04  0.16209711227E+04  0.00000000000E+00 0. -1.
          1    1    1    2  503    0  0.11009583533E+02 -0.41405370859E+02  0.14582666353E+04  0.14588958823E+04  0.00000000000E+00 0. -1.
<mgrwt>
<rscale>  0 0.62886205E+02</rscale>
<asrwt>0</asrwt>
<pdfrwt beam="1">  1        2 0.25066124E+00 0.42844086E+02</pdfrwt>
<pdfrwt beam="2">  1        2 0.29747752E+00 0.92303867E+02</pdfrwt>
<totfact> 0.19300603E+01</totfact>
</mgrwt>
</event>
<event>
13    1  0.2101801E-008  0.1022145E+03  0.7546771E-02  0.1276550E+00
          2   -1    0    0  503    0  0.00000000000E+00  0.00000000000E+00  0.83830383742E+03  0.83830383742E+03  0.00000000000E+00 0. -1.
          2   -1    0    0  502    0 -0.00000000000E+00 -0.00000000000E+00 -0.19029714057E+04  0.19029714057E+04  0.00000000000E+00 0. -1.
         24    2    1    2    0    0  0.29577560412E+02  0.59011210213E+02 -0.54654582003E+03  0.55636201173E+03  0.80431335233E+02 0.  0.
         25    2    1    2    0    0  0.10801006099E+03 -0.14720966025E+03 -0.44793577846E+02  0.22576317578E+03  0.12500275827E+03 0.  0.
         24    2    1    2    0    0 -0.14939531462E+03  0.58972161203E+02 -0.11270348961E+03  0.21196128548E+03  0.80180010900E+02 0.  0.
        -11    1    3    3    0    0  0.94126506593E+01 -0.20209535229E+02 -0.11415784129E+03  0.11631438447E+03  0.00000000000E+00 0.  1.
         12    1    3    3    0    0  0.20164909752E+02  0.79220745442E+02 -0.43238797874E+03  0.44004762725E+03  0.00000000000E+00 0. -1.
        -13    1    5    5    0    0  0.17889618540E+01 -0.15935651032E+01 -0.28530703495E+02  0.28631117271E+02  0.00000000000E+00 0.  1.
         14    1    5    5    0    0 -0.15118427647E+03  0.60565726306E+02 -0.84172786110E+02  0.18333016821E+03  0.00000000000E+00 0. -1.
          5    1    4    4  501    0  0.13613642164E+02 -0.94259729548E+02  0.22838201148E+02  0.98050503819E+02  0.47000000000E+01 0. -1.
         -5    1    4    4    0  501  0.94396418826E+02 -0.52949930705E+02 -0.67631778994E+02  0.12771267196E+03  0.47000000000E+01 0. -1.
          1    1    1    2  502    0  0.97765545691E+02 -0.26875926308E+02 -0.10476463697E+04  0.10525413689E+04  0.00000000000E+00 0. -1.
          1    1    1    2  503    0 -0.85957852476E+02  0.56102215146E+02  0.68702168891E+03  0.69464740119E+03  0.00000000000E+00 0. -1.
<mgrwt>
<rscale>  0 0.10180260E+03</rscale>
<asrwt>0</asrwt>
<pdfrwt beam="1">  1        2 0.12327998E+00 0.10221446E+03</pdfrwt>
<pdfrwt beam="2">  1        2 0.27984874E+00 0.10139239E+03</pdfrwt>
<totfact> 0.58292043E+01</totfact>
</mgrwt>
</event>
<event>
13    1  0.2101801E-008  0.4106861E+02  0.7546771E-02  0.1607343E+00
          2   -1    0    0  502    0  0.00000000000E+00  0.00000000000E+00  0.14975375966E+04  0.14975375966E+04  0.00000000000E+00 0. -1.
          2   -1    0    0  503    0 -0.00000000000E+00 -0.00000000000E+00 -0.12149295661E+04  0.12149295661E+04  0.00000000000E+00 0. -1.
         24    2    1    2    0    0 -0.30911358691E+03 -0.48741850512E+02 -0.29811994261E+03  0.44412712873E+03  0.10220777213E+03 0.  0.
         25    2    1    2    0    0  0.34414709990E+03 -0.29943950208E+03  0.23766188060E+03  0.52934822138E+03  0.12500051286E+03 0.  0.
         24    2    1    2    0    0 -0.50287752330E+02  0.28999362094E+03 -0.99094103299E+02  0.32080808868E+03  0.80455144243E+02 0.  0.
        -13    1    3    3    0    0 -0.19132220594E+03 -0.42778819261E+02 -0.24761019745E+03  0.31582435585E+03  0.00000000000E+00 0.  1.
         14    1    3    3    0    0 -0.11779138097E+03 -0.59630312514E+01 -0.50509745156E+02  0.12830277288E+03  0.00000000000E+00 0. -1.
        -13    1    5    5    0    0 -0.46192426268E+02  0.68556489061E+02 -0.15647726901E+02  0.84134319954E+02  0.00000000000E+00 0.  1.
         14    1    5    5    0    0 -0.40953260621E+01  0.22143713188E+03 -0.83446376398E+02  0.23667376873E+03  0.00000000000E+00 0. -1.
          5    1    4    4  501    0 -0.77526017098E+01 -0.21078981563E+02  0.20848521859E+02  0.31002857299E+02  0.47000000000E+01 0.  1.
         -5    1    4    4    0  501  0.35189970161E+03 -0.27836052051E+03  0.21681335874E+03  0.49834536408E+03  0.47000000000E+01 0.  1.
          1    1    1    2  502    0 -0.14125612665E+01  0.20683560811E+02  0.92919326959E+03  0.92942451941E+03  0.00000000000E+00 0. -1.
          1    1    1    2  503    0  0.16666800613E+02  0.37504170837E+02 -0.48703307379E+03  0.48875920456E+03  0.00000000000E+00 0. -1.
<mgrwt>
<rscale>  0 0.29179167E+02</rscale>
<asrwt>0</asrwt>
<pdfrwt beam="1">  1        2 0.22022612E+00 0.20731739E+02</pdfrwt>
<pdfrwt beam="2">  1        2 0.17866611E+00 0.41068613E+02</pdfrwt>
<totfact> 0.67527669E+01</totfact>
</mgrwt>
</event>
<event>
13    1  0.2101801E-008  0.6889550E+02  0.7546771E-02  0.1472301E+00
          2   -1    0    0  502    0  0.00000000000E+00  0.00000000000E+00  0.29102200108E+04  0.29102200108E+04  0.00000000000E+00 0. -1.
          2   -1    0    0  503    0 -0.00000000000E+00 -0.00000000000E+00 -0.40193121561E+03  0.40193121561E+03  0.00000000000E+00 0. -1.
         24    2    1    2    0    0 -0.14268873466E+01 -0.13122924386E+03 -0.10297736217E+03  0.18306215012E+03  0.75394053029E+02 0.  0.
         25    2    1    2    0    0 -0.60726150075E+00  0.89764917760E+02  0.17962310732E+04  0.18028115904E+04  0.12500181256E+03 0.  0.
         24    2    1    2    0    0 -0.12077800766E+02  0.81961674008E+02  0.24009414888E+03  0.26617087813E+03  0.79612478677E+02 0.  0.
        -13    1    5    5    0    0 -0.85670427985E+01  0.40072916549E+02  0.27241143384E+02  0.49206836476E+02  0.00000000000E+00 0.  1.
         14    1    5    5    0    0 -0.35107579671E+01  0.41888757459E+02  0.21285300549E+03  0.21696404165E+03  0.00000000000E+00 0. -1.
        -13    1    3    3    0    0  0.83075051917E+00  0.97036888147E+01 -0.11308182596E+02  0.14924031515E+02  0.00000000000E+00 0.  1.
         14    1    3    3    0    0 -0.22576378657E+01 -0.14093293268E+03 -0.91669179576E+02  0.16813811860E+03  0.00000000000E+00 0. -1.
          5    1    4    4  501    0 -0.97515960082E+01  0.98123233191E+02  0.74675476103E+03  0.75325163500E+03  0.47000000000E+01 0.  1.
         -5    1    4    4    0  501  0.91443345075E+01 -0.83583154318E+01  0.10494763122E+04  0.10495599554E+04  0.47000000000E+01 0.  1.
          1    1    1    2  502    0  0.94037752227E+01  0.28301778012E+02  0.81234371902E+03  0.81289097637E+03  0.00000000000E+00 0. -1.
          1    1    1    2  503    0  0.47081743902E+01 -0.68799125915E+02 -0.23740278376E+03  0.24721563132E+03  0.00000000000E+00 0. -1.
<mgrwt>
<rscale>  0 0.45328604E+02</rscale>
<asrwt>0</asrwt>
<pdfrwt beam="1">  1        2 0.42797352E+00 0.29823173E+02</pdfrwt>
<pdfrwt beam="2">  1        2 0.59107533E-01 0.68895498E+02</pdfrwt>
<totfact> 0.51195200E+01</totfact>
</mgrwt>
</event>
<event>
13    1  0.2101801E-008  0.1354525E+03  0.7546771E-02  0.1350893E+00
         -1   -1    0    0    0  501 -0.00000000000E+00  0.00000000000E+00  0.19975361155E+04  0.19975361155E+04  0.00000000000E+00 0.  1.
          2   -1    0    0  503    0  0.00000000000E+00 -0.00000000000E+00 -0.24152849160E+04  0.24152849160E+04  0.00000000000E+00 0. -1.
         24    2    1    2    0    0 -0.10142172350E+03 -0.12008677531E+03  0.11071628974E+03  0.20837659161E+03  0.80346173008E+02 0.  0.
         25    2    1    2    0    0  0.98469671313E+01  0.93548128059E+02 -0.28185194894E+03  0.32236408830E+03  0.12501947561E+03 0.  0.
         24    2    1    2    0    0 -0.86784991875E+02 -0.62059929649E+02  0.28967146212E+03  0.31933145817E+03  0.81730988777E+02 0.  0.
        -11    1    3    3    0    0 -0.94062595643E+02 -0.73629009910E+02  0.10836268180E+03  0.16128072981E+03  0.00000000000E+00 0.  1.
         12    1    3    3    0    0 -0.73591278550E+01 -0.46457765403E+02  0.23536079336E+01  0.47095861807E+02  0.00000000000E+00 0. -1.
        -13    1    5    5    0    0 -0.12177497393E+02  0.16365978319E+01  0.13897948162E+03  0.13952156179E+03  0.00000000000E+00 0.  1.
         14    1    5    5    0    0 -0.74607494482E+02 -0.63696527481E+02  0.15069198051E+03  0.17980989638E+03  0.00000000000E+00 0. -1.
          5    1    4    4  502    0 -0.13958387059E+02 -0.27211231371E+02 -0.81525584034E+02  0.87199762236E+02  0.47000000000E+01 0. -1.
         -5    1    4    4    0  502  0.23805354190E+02  0.12075935943E+03 -0.20032636490E+03  0.23516432606E+03  0.47000000000E+01 0. -1.
          1    1    1    2  503    0 -0.35616249959E+02  0.16141803448E+02 -0.20408968442E+04  0.20412714184E+04  0.00000000000E+00 0. -1.
         -2    1    1    2    0  501  0.21397599820E+03  0.72456773457E+02  0.15046122408E+04  0.15214774750E+04  0.00000000000E+00 0.  1.
<mgrwt>
<rscale>  0 0.72778111E+02</rscale>
<asrwt>0</asrwt>
<pdfrwt beam="2">  1        2 0.35518896E+00 0.39103390E+02</pdfrwt>
<pdfrwt beam="1">  1       -1 0.29375531E+00 0.13545254E+03</pdfrwt>
<totfact> 0.34560563E-01</totfact>
</mgrwt>
</event>
<event>
13    1  0.2101801E-008  0.2152727E+03  0.7546771E-02  0.1183295E+00
          2   -1    0    0  502    0  0.00000000000E+00  0.00000000000E+00  0.46753250403E+04  0.46753250403E+04  0.00000000000E+00 0. -1.
          2   -1    0    0  503    0 -0.00000000000E+00 -0.00000000000E+00 -0.29513658134E+04  0.29513658134E+04  0.00000000000E+00 0. -1.
         24    2    1    2    0    0 -0.14854696089E+03  0.28481325206E+02 -0.54562345004E+03  0.57160782717E+03  0.78442165830E+02 0.  0.
         25    2    1    2    0    0  0.59044238825E+03  0.62889471348E+02  0.31686284420E+03  0.68454725076E+03  0.12500230814E+03 0.  0.
         24    2    1    2    0    0 -0.30702725692E+03 -0.70987621776E+02 -0.61015119161E+02  0.33107278305E+03  0.81125606163E+02 0.  0.
        -11    1    5    5    0    0 -0.32469625035E+02 -0.36187960143E+02 -0.75673123039E+01  0.49204768313E+02  0.00000000000E+00 0.  1.
         12    1    5    5    0    0 -0.27455763188E+03 -0.34799661633E+02 -0.53447806857E+02  0.28186801474E+03  0.00000000000E+00 0. -1.
        -13    1    3    3    0    0 -0.38111976705E+02 -0.21280887792E+02 -0.21758365239E+03  0.22191900491E+03  0.00000000000E+00 0.  1.
         14    1    3    3    0    0 -0.11043498418E+03  0.49762212998E+02 -0.32803979765E+03  0.34968882226E+03  0.00000000000E+00 0. -1.
          5    1    4    4  501    0  0.41469027260E+03  0.10099615838E+03  0.21841618792E+03  0.47947467852E+03  0.47000000000E+01 0. -1.
         -5    1    4    4    0  501  0.17575211565E+03 -0.38106687035E+02  0.98446656282E+02  0.20507257224E+03  0.47000000000E+01 0. -1.
          1    1    1    2  502    0 -0.16249018965E+02  0.12523401848E+03  0.40212244156E+04  0.40232068540E+04  0.00000000000E+00 0. -1.
          1    1    1    2  503    0 -0.11861915148E+03 -0.14561719326E+03 -0.20074894636E+04  0.20162561387E+04  0.00000000000E+00 0. -1.
<mgrwt>
<rscale>  0 0.16488010E+03</rscale>
<asrwt>0</asrwt>
<pdfrwt beam="1">  1        2 0.68754781E+00 0.12628377E+03</pdfrwt>
<pdfrwt beam="2">  1        2 0.43402438E+00 0.21527270E+03</pdfrwt>
<totfact> 0.92931693E-02</totfact>
</mgrwt>
</event>
<event>
13    1  0.2101801E-008  0.1462038E+03  0.7546771E-02  0.1317544E+00
          2   -1    0    0  502    0  0.00000000000E+00  0.00000000000E+00  0.64975291859E+03  0.64975291859E+03  0.00000000000E+00 0. -1.
          2   -1    0    0  503    0 -0.00000000000E+00 -0.00000000000E+00 -0.95550560546E+03  0.95550560546E+03  0.00000000000E+00 0. -1.
         24    2    1    2    0    0 -0.72073151767E+01 -0.17713447888E+02 -0.29000927171E+03  0.30154612788E+03  0.80367766775E+02 0.  0.
         25    2    1    2    0    0 -0.17565780753E+03 -0.18548982985E+03 -0.13478712226E+03  0.31472829653E+03  0.12499675990E+03 0.  0.
         24    2    1    2    0    0  0.12852087331E+03 -0.22908748845E+02  0.45550182084E+02  0.15974058179E+03  0.79998804557E+02 0.  0.
        -11    1    3    3    0    0 -0.76381476607E+01  0.29785007770E+02 -0.16449708696E+03  0.16734628650E+03  0.00000000000E+00 0.  1.
         12    1    3    3    0    0  0.43083248400E+00 -0.47498455658E+02 -0.12551218475E+03  0.13419984138E+03  0.00000000000E+00 0. -1.
        -13    1    5    5    0    0 -0.44627024956E+01  0.12399498760E+02 -0.35553568899E+01  0.13649316675E+02  0.00000000000E+00 0.  1.
         14    1    5    5    0    0  0.13298357581E+03 -0.35308247605E+02  0.49105538974E+02  0.14609126511E+03  0.00000000000E+00 0. -1.
          5    1    4    4  501    0 -0.16910858977E+02 -0.95642544469E+02 -0.74699421398E+02  0.12261960292E+03  0.47000000000E+01 0. -1.
         -5    1    4    4    0  501 -0.15874694855E+03 -0.89847285378E+02 -0.60087700866E+02  0.19210869361E+03  0.47000000000E+01 0. -1.
          1    1    1    2  502    0 -0.37278999335E+01 -0.48345542218E+02  0.39762493360E+03  0.40057056371E+03  0.00000000000E+00 0. -1.
          1    1    1    2  503    0  0.58072149323E+02  0.27445756880E+03 -0.32413140858E+03  0.42867295415E+03  0.00000000000E+00 0. -1.
<mgrwt>
<rscale>  0 0.84197900E+02</rscale>
<asrwt>0</asrwt>
<pdfrwt beam="1">  1        2 0.95551901E-01 0.48489057E+02</pdfrwt>
<pdfrwt beam="2">  1        2 0.14051553E+00 0.14620384E+03</pdfrwt>
<totfact> 0.24090570E+02</totfact>
</mgrwt>
</event>
<event>
13    1  0.2101801E-008  0.9362325E+02  0.7546771E-02  0.1333468E+00
          2   -1    0    0  503    0  0.00000000000E+00  0.00000000000E+00  0.53625123176E+04  0.53625123176E+04  0.00000000000E+00 0. -1.
         -3   -1    0    0    0  501 -0.00000000000E+00 -0.00000000000E+00 -0.60640765295E+02  0.60640765295E+02  0.00000000000E+00 0.  1.
         24    2    1    2    0    0 -0.15091042645E+03  0.32852984205E+02  0.32253969163E+03  0.36660286715E+03  0.80700273489E+02 0.  0.
         25    2    1    2    0    0  0.57668569208E+02  0.49630765737E+02  0.24267777492E+04  0.24311860376E+04  0.12500571400E+03 0.  0.
         24    2    1    2    0    0  0.11592089717E+03 -0.37832668743E+02  0.52325088237E+03  0.54319947013E+03  0.80032575998E+02 0.  0.
        -13    1    5    5    0    0  0.85006678470E+02 -0.61256457430E+02  0.42090910008E+03  0.43375449219E+03  0.00000000000E+00 0.  1.
         14    1    5    5    0    0  0.30914218702E+02  0.23423788687E+02  0.10234178229E+03  0.10944497794E+03  0.00000000000E+00 0. -1.
        -13    1    3    3    0    0 -0.12246410658E+03  0.39211365881E+02  0.30854748645E+03  0.33427016022E+03  0.00000000000E+00 0.  1.
         14    1    3    3    0    0 -0.28446319873E+02 -0.63583816765E+01  0.13992205179E+02  0.32332706933E+02  0.00000000000E+00 0. -1.
          5    1    4    4  502    0  0.42970631758E+01  0.35838177505E+02  0.20542524788E+04  0.20545749381E+04  0.47000000000E+01 0.  1.
         -5    1    4    4    0  502  0.53371506033E+02  0.13792588232E+02  0.37252527044E+03  0.37661109949E+03  0.47000000000E+01 0.  1.
          1    1    1    2  503    0  0.22030710425E+02 -0.92872833590E+02  0.20118709996E+04  0.20141339664E+04  0.00000000000E+00 0. -1.
         -4    1    1    2    0  501 -0.44709750355E+02  0.48221752391E+02  0.17432229431E+02  0.68030741606E+02  0.00000000000E+00 0.  1.
<mgrwt>
<rscale>  0 0.78464064E+02</rscale>
<asrwt>0</asrwt>
<pdfrwt beam="1">  1        2 0.78860443E+00 0.93623254E+02</pdfrwt>
<pdfrwt beam="2">  1       -3 0.89177633E-02 0.65759404E+02</pdfrwt>
<totfact> 0.23069352E+00</totfact>
</mgrwt>
</event>
<event>
13    1  0.2101801E-008  0.1048025E+03  0.7546771E-02  0.1333124E+00
         -1   -1    0    0    0  501 -0.00000000000E+00  0.00000000000E+00  0.13196977384E+04  0.13196977384E+04  0.00000000000E+00 0.  1.
          2   -1    0    0  503    0  0.00000000000E+00 -0.00000000000E+00 -0.35997184406E+04  0.35997184406E+04  0.00000000000E+00 0. -1.
         24    2    1    2    0    0  0.17981857353E+03  0.56819519683E+03 -0.52312993734E+03  0.79999469942E+03  0.10557502865E+03 0.  0.
         25    2    1    2    0    0  0.62710701518E+01 -0.24132606470E+03  0.10004924708E+02  0.27200646706E+03  0.12493928035E+03 0.  0.
         24    2    1    2    0    0 -0.23827754689E+03 -0.28165465151E+03 -0.10125051897E+04  0.10806619755E+04  0.80981566803E+02 0.  0.
        -13    1    3    3    0    0  0.19152096474E+03  0.49695027640E+03 -0.45012484557E+03  0.69731788572E+03  0.00000000000E+00 0.  1.
         14    1    3    3    0    0 -0.11702391209E+02  0.71244920434E+02 -0.73005091774E+02  0.10267681370E+03  0.00000000000E+00 0. -1.
        -13    1    5    5    0    0 -0.24363075822E+03 -0.27878064329E+03 -0.98021980830E+03  0.10478098425E+04  0.00000000000E+00 0.  1.
         14    1    5    5    0    0  0.53532113347E+01 -0.28740082222E+01 -0.32285381381E+02  0.32852133047E+02  0.00000000000E+00 0. -1.
          5    1    4    4  502    0 -0.34080052256E+02 -0.90938559035E+02  0.52553384791E+02  0.11052248520E+03  0.47000000000E+01 0.  1.
         -5    1    4    4    0  502  0.40351122408E+02 -0.15038750567E+03 -0.42548460083E+02  0.16148398186E+03  0.47000000000E+01 0.  1.
          1    1    1    2  503    0  0.21202737006E+02  0.54974697100E+02 -0.17573440735E+04  0.17583315859E+04  0.00000000000E+00 0. -1.
         -2    1    1    2    0  501  0.30985166199E+02 -0.10018917772E+03  0.10029535737E+04  0.10084214510E+04  0.00000000000E+00 0.  1.
<mgrwt>
<rscale>  0 0.78582097E+02</rscale>
<asrwt>0</asrwt>
<pdfrwt beam="2">  1        2 0.52937035E+00 0.58921756E+02</pdfrwt>
<pdfrwt beam="1">  1       -1 0.19407320E+00 0.10480248E+03</pdfrwt>
<totfact> 0.33564030E-01</totfact>
</mgrwt>
</event>
<event>
13    1  0.2101801E-008  0.1526110E+03  0.7546771E-02  0.1253758E+00
          2   -1    0    0  502    0  0.00000000000E+00  0.00000000000E+00  0.10528034218E+04  0.10528034218E+04  0.00000000000E+00 0. -1.
          2   -1    0    0  503    0 -0.00000000000E+00 -0.00000000000E+00 -0.55981248976E+03  0.55981248976E+03  0.00000000000E+00 0. -1.
         24    2    1    2    0    0 -0.95850511144E+02 -0.14092339488E+02 -0.89384461485E+02  0.15698641464E+03  0.85259825874E+02 0.  0.
         25    2    1    2    0    0 -0.86533980227E+02 -0.98050057617E+02  0.89955359663E+02  0.20203489502E+03  0.12499675413E+03 0.  0.
         24    2    1    2    0    0  0.22241001096E+01  0.30593293802E+01  0.39687851448E+03  0.40472408231E+03  0.79213139241E+02 0.  0.
        -13    1    5    5    0    0 -0.31330044401E+02  0.24184176631E+02  0.20704775023E+03  0.21079662463E+03  0.00000000000E+00 0.  1.
         14    1    5    5    0    0  0.33554144511E+02 -0.21124847251E+02  0.18983076425E+03  0.19392745768E+03  0.00000000000E+00 0. -1.
        -13    1    3    3    0    0 -0.10762276554E+03  0.12083407876E+01 -0.85107430515E+02  0.13721295302E+03  0.00000000000E+00 0.  1.
         14    1    3    3    0    0  0.11772254392E+02 -0.15300680275E+02 -0.42770309700E+01  0.19773461616E+02  0.00000000000E+00 0. -1.
          5    1    4    4  501    0 -0.38777315003E+01 -0.65951769872E+02 -0.11485738682E+02  0.67221164405E+02  0.47000000000E+01 0. -1.
         -5    1    4    4    0  501 -0.82656248726E+02 -0.32098287745E+02  0.10144109834E+03  0.13481373062E+03  0.47000000000E+01 0. -1.
          1    1    1    2  502    0 -0.78461519315E+02  0.45883519373E+02  0.41968138434E+03  0.42941119190E+03  0.00000000000E+00 0. -1.
          1    1    1    2  503    0  0.25862191058E+03  0.63199548351E+02 -0.32413986495E+03  0.41945932770E+03  0.00000000000E+00 0. -1.
<mgrwt>
<rscale>  0 0.11376154E+03</rscale>
<asrwt>0</asrwt>
<pdfrwt beam="1">  1        2 0.15482403E+00 0.84801796E+02</pdfrwt>
<pdfrwt beam="2">  1        2 0.82325366E-01 0.15261102E+03</pdfrwt>
<totfact> 0.25026580E+02</totfact>
</mgrwt>
</event>
<event>
13    1  0.2101801E-008  0.1017739E+03  0.7546771E-02  0.1312938E+00
         -3   -1    0    0    0  501 -0.00000000000E+00  0.00000000000E+00  0.40915438601E+03  0.40915438601E+03  0.00000000000E+00 0.  1.
          2   -1    0    0  503    0  0.00000000000E+00 -0.00000000000E+00 -0.12902958570E+04  0.12902958570E+04  0.00000000000E+00 0. -1.
         24    2    1    2    0    0  0.91392254533E+02 -0.93600820043E+01  0.88832701627E+02  0.15085439445E+03  0.80160115544E+02 0.  0.
         25    2    1    2    0    0 -0.15840593863E+03 -0.11550011113E+03 -0.24360941639E+03  0.33675437870E+03  0.12500098702E+03 0.  0.
         24    2    1    2    0    0 -0.29070548204E+02  0.12758690722E+01 -0.15666622210E+03  0.17709362001E+03  0.77273025613E+02 0.  0.
        -11    1    3    3    0    0  0.94703459444E+02 -0.22481366251E+02  0.49378543220E+02  0.10914393061E+03  0.00000000000E+00 0.  1.
         12    1    3    3    0    0 -0.33112049107E+01  0.13121284247E+02  0.39454158406E+02  0.41710463841E+02  0.00000000000E+00 0. -1.
        -13    1    5    5    0    0  0.55174559352E+01  0.33463958837E+02 -0.49841764608E+02  0.60286651593E+02  0.00000000000E+00 0.  1.
         14    1    5    5    0    0 -0.34588004140E+02 -0.32188089764E+02 -0.10682445749E+03  0.11680696842E+03  0.00000000000E+00 0. -1.
          5    1    4    4  502    0 -0.10084652288E+03 -0.11788544969E+03 -0.22984035522E+03  0.27733676156E+03  0.47000000000E+01 0. -1.
         -5    1    4    4    0  502 -0.57559415752E+02  0.23853385524E+01 -0.13769061173E+02  0.59417617146E+02  0.47000000000E+01 0. -1.
          1    1    1    2  503    0  0.67280259103E+02  0.27292664457E+02 -0.78961839300E+03  0.79294938638E+03  0.00000000000E+00 0. -1.
         -4    1    1    2    0  501  0.28803973196E+02  0.96291659609E+02  0.21991985890E+03  0.24179846344E+03  0.00000000000E+00 0.  1.
<mgrwt>
<rscale>  0 0.85961165E+02</rscale>
<asrwt>0</asrwt>
<pdfrwt beam="2">  1        2 0.18974939E+00 0.72605253E+02</pdfrwt>
<pdfrwt beam="1">  1       -3 0.60169763E-01 0.10177393E+03</pdfrwt>
<totfact> 0.34438918E+01</totfact>
</mgrwt>
</event>
<event>
13    1  0.2101801E-008  0.6243794E+02  0.7546771E-02  0.1451831E+00
          2   -1    0    0  503    0  0.00000000000E+00  0.00000000000E+00  0.74566139683E+03  0.74566139683E+03  0.00000000000E+00 0. -1.
          2   -1    0    0  502    0 -0.00000000000E+00 -0.00000000000E+00 -0.20511456079E+04  0.20511456079E+04  0.00000000000E+00 0. -1.
         24    2    1    2    0    0  0.13176678541E+03 -0.25025858439E+03 -0.13563328285E+04  0.13879284983E+04  0.81944675967E+02 0.  0.
         25    2    1    2    0    0 -0.15040898698E+03  0.31266042358E+03 -0.34070081806E+03  0.50207781197E+03  0.12500271200E+03 0.  0.
         24    2    1    2    0    0  0.82470193714E+01 -0.25360218696E+02 -0.68304842579E+02  0.10924925425E+03  0.80985764261E+02 0.  0.
        -11    1    5    5    0    0 -0.29455301309E+02  0.11937031895E+02 -0.20270658585E+02  0.37696247892E+02  0.00000000000E+00 0.  1.
         12    1    5    5    0    0  0.37702320681E+02 -0.37297250591E+02 -0.48034183994E+02  0.71553006354E+02  0.00000000000E+00 0. -1.
        -11    1    3    3    0    0  0.11749450467E+03 -0.22342783137E+03 -0.10425229063E+04  0.10726504392E+04  0.00000000000E+00 0.  1.
         12    1    3    3    0    0  0.14272280738E+02 -0.26830753020E+02 -0.31380992222E+03  0.31527805916E+03  0.00000000000E+00 0. -1.
          5    1    4    4  501    0 -0.16514810216E+03  0.31217050214E+03 -0.32376952498E+03  0.47913788554E+03  0.47000000000E+01 0. -1.
         -5    1    4    4    0  501  0.14739115179E+02  0.48992143934E+00 -0.16931293082E+02  0.22939926432E+02  0.47000000000E+01 0. -1.
          1    1    1    2  502    0 -0.38095416730E+02  0.23330193801E+01 -0.16511481026E+03  0.16946859391E+03  0.00000000000E+00 0. -1.
          1    1    1    2  503    0  0.48490598929E+02 -0.39374639878E+02  0.62496908833E+03  0.62808284630E+03  0.00000000000E+00 0. -1.
<mgrwt>
<rscale>  0 0.48816551E+02</rscale>
<asrwt>0</asrwt>
<pdfrwt beam="1">  1        2 0.10965609E+00 0.62437940E+02</pdfrwt>
<pdfrwt beam="2">  1        2 0.30163905E+00 0.38166789E+02</pdfrwt>
<totfact> 0.64558550E+01</totfact>
</mgrwt>
</event>
<event>
13    1  0.2101801E-008  0.4787550E+03  0.7546771E-02  0.1145930E+00
          2   -1    0    0  502    0  0.00000000000E+00  0.00000000000E+00  0.17260309231E+04  0.17260309231E+04  0.00000000000E+00 0. -1.
          2   -1    0    0  503    0 -0.00000000000E+00 -0.00000000000E+00 -0.27207749423E+04  0.27207749423E+04  0.00000000000E+00 0. -1.
         24    2    1    2    0    0  0.60794541606E+02 -0.94267032141E+02 -0.15187190221E+04  0.15250765232E+04  0.82272011432E+02 0.  0.
         25    2    1    2    0    0  0.47388716316E+03  0.16436797202E+03 -0.11263335596E+03  0.52905302922E+03  0.12499984486E+03 0.  0.
         24    2    1    2    0    0 -0.15243649340E+02  0.43496653665E+02 -0.44044667096E+02  0.10287444908E+03  0.80739654748E+02 0.  0.
        -11    1    3    3    0    0 -0.58924621560E+01 -0.59239259846E+02 -0.86159703784E+03  0.86365124132E+03  0.00000000000E+00 0.  1.
         12    1    3    3    0    0  0.66687003762E+02 -0.35027772294E+02 -0.65712198425E+03  0.66142528186E+03  0.00000000000E+00 0. -1.
        -11    1    5    5    0    0 -0.69915921119E+01  0.67271023334E+02 -0.29299759436E+02  0.73707183121E+02  0.00000000000E+00 0.  1.
         12    1    5    5    0    0 -0.82520572281E+01 -0.23774369669E+02 -0.14744907660E+02  0.29167265960E+02  0.00000000000E+00 0. -1.
          5    1    4    4  501    0  0.26545209085E+03  0.94681586443E+02 -0.12614811441E+03  0.30881200125E+03  0.47000000000E+01 0.  1.
         -5    1    4    4    0  501  0.20843507231E+03  0.69686385574E+02  0.13514758446E+02  0.22024102797E+03  0.47000000000E+01 0.  1.
          1    1    1    2  502    0 -0.47626904647E+03 -0.37577744768E+02  0.14442497223E+04  0.15212171285E+04  0.00000000000E+00 0. -1.
          1    1    1    2  503    0 -0.43169008960E+02 -0.76019848774E+02 -0.76359669640E+03  0.76858473541E+03  0.00000000000E+00 0. -1.
<mgrwt>
<rscale>  0 0.20458164E+03</rscale>
<asrwt>0</asrwt>
<pdfrwt beam="1">  1        2 0.25382808E+00 0.47875496E+03</pdfrwt>
<pdfrwt beam="2">  1        2 0.40011396E+00 0.87421855E+02</pdfrwt>
<totfact> 0.70031947E+00</totfact>
</mgrwt>
</event>
<event>
13    1  0.2101801E-008  0.6670420E+02  0.7546771E-02  0.1449587E+00
          2   -1    0    0  503    0  0.00000000000E+00  0.00000000000E+00  0.11078705208E+04  0.11078705208E+04  0.00000000000E+00 0. -1.
         -1   -1    0    0    0  501 -0.00000000000E+00 -0.00000000000E+00 -0.12054671662E+04  0.12054671662E+04  0.00000000000E+00 0.  1.
         24    2    1    2    0    0  0.84366287708E+02  0.17331872937E+03 -0.37120811234E+03  0.42574923319E+03  0.79434844024E+02 0.  0.
         25    2    1    2    0    0 -0.29764402118E+02  0.30680872649E+02 -0.48329524985E+03  0.50102476494E+03  0.12499712385E+03 0.  0.
         24    2    1    2    0    0 -0.79367593680E+02 -0.15990465181E+03  0.11410354333E+03  0.22605303920E+03  0.78813992010E+02 0.  0.
        -11    1    5    5    0    0 -0.86709607582E+02 -0.15090684556E+03  0.82940954469E+02  0.19279687241E+03  0.00000000000E+00 0.  1.
         12    1    5    5    0    0  0.73420139018E+01 -0.89978062532E+01  0.31162588858E+02  0.33256166794E+02  0.00000000000E+00 0. -1.
        -13    1    3    3    0    0 -0.86039613601E+01  0.58855192754E+02 -0.84418936645E+02  0.10326915672E+03  0.00000000000E+00 0.  1.
         14    1    3    3    0    0  0.92970249068E+02  0.11446353661E+03 -0.28678917570E+03  0.32248007647E+03  0.00000000000E+00 0. -1.
          5    1    4    4  502    0 -0.46774872414E+02  0.63803161797E+02 -0.19800250481E+03  0.21327403512E+03  0.47000000000E+01 0. -1.
         -5    1    4    4    0  502  0.17010470295E+02 -0.33122289148E+02 -0.28529274505E+03  0.28775072982E+03  0.47000000000E+01 0. -1.
          1    1    1    2  503    0 -0.37171918213E+01 -0.66632012377E+02  0.89914011697E+03  0.90161332761E+03  0.00000000000E+00 0. -1.
         -2    1    1    2    0  501  0.28482899912E+02  0.22537062172E+02 -0.25633694354E+03  0.25889732208E+03  0.00000000000E+00 0.  1.
<mgrwt>
<rscale>  0 0.49221384E+02</rscale>
<asrwt>0</asrwt>
<pdfrwt beam="1">  1        2 0.16292214E+00 0.66704200E+02</pdfrwt>
<pdfrwt beam="2">  1       -1 0.17727458E+00 0.36320721E+02</pdfrwt>
<totfact> 0.84343925E+00</totfact>
</mgrwt>
</event>
<event>
13    1  0.2101801E-008  0.1853297E+03  0.7546771E-02  0.1345704E+00
          2   -1    0    0  503    0  0.00000000000E+00  0.00000000000E+00  0.84637665759E+03  0.84637665759E+03  0.00000000000E+00 0. -1.
          2   -1    0    0  502    0 -0.00000000000E+00 -0.00000000000E+00 -0.13703147590E+04  0.13703147590E+04  0.00000000000E+00 0. -1.
         24    2    1    2    0    0  0.66816502849E+02  0.46721127756E+02 -0.11401073912E+03  0.16122979300E+03  0.79682423925E+02 0.  0.
         25    2    1    2    0    0  0.16417784558E+03  0.90448901793E+02 -0.42201544796E+03  0.47838974486E+03  0.12499736341E+03 0.  0.
         24    2    1    2    0    0  0.16262900642E+02 -0.11614920920E+03  0.44590569108E+03  0.46798448445E+03  0.80140324531E+02 0.  0.
        -13    1    5    5    0    0 -0.74858751721E+01 -0.10326965480E+03  0.25567306551E+03  0.27584302847E+03  0.00000000000E+00 0.  1.
         14    1    5    5    0    0  0.23748775814E+02 -0.12879554393E+02  0.19023262557E+03  0.19214145598E+03  0.00000000000E+00 0. -1.
        -13    1    3    3    0    0 -0.62968244895E+01  0.20442636414E+02 -0.67206191152E+02  0.70528175302E+02  0.00000000000E+00 0.  1.
         14    1    3    3    0    0  0.73113327339E+02  0.26278491343E+02 -0.46804547972E+02  0.90701617696E+02  0.00000000000E+00 0. -1.
          5    1    4    4  501    0  0.17277379039E+03  0.10542433790E+03 -0.40866249410E+03  0.45606161618E+03  0.47000000000E+01 0.  1.
         -5    1    4    4    0  501 -0.85959448099E+01 -0.14975436109E+02 -0.13352953858E+02  0.22328128685E+02  0.47000000000E+01 0.  1.
          1    1    1    2  502    0 -0.35598624311E+00 -0.29874469219E+02 -0.72590831927E+03  0.72652288239E+03  0.00000000000E+00 0. -1.
          1    1    1    2  503    0 -0.24690126283E+03  0.88536488679E+01  0.29209071383E+03  0.38256451193E+03  0.00000000000E+00 0. -1.
<mgrwt>
<rscale>  0 0.74411150E+02</rscale>
<asrwt>0</asrwt>
<pdfrwt beam="1">  1        2 0.12446716E+00 0.18532969E+03</pdfrwt>
<pdfrwt beam="2">  1        2 0.20151687E+00 0.29876590E+02</pdfrwt>
<totfact> 0.11245060E+02</totfact>
</mgrwt>
</event>
<event>
13    1  0.2101801E-008  0.8209432E+02  0.7546771E-02  0.1369083E+00
          2   -1    0    0  502    0  0.00000000000E+00  0.00000000000E+00  0.39118917610E+04  0.39118917610E+04  0.00000000000E+00 0. -1.
          2   -1    0    0  503    0 -0.00000000000E+00 -0.00000000000E+00 -0.16100028865E+04  0.16100028865E+04  0.00000000000E+00 0. -1.
         24    2    1    2    0    0 -0.12528796347E+01 -0.46601755565E+02 -0.35326463499E+03  0.36532829220E+03  0.80595070685E+02 0.  0.
         25    2    1    2    0    0 -0.12054858087E+03 -0.20077677561E+02  0.13447722111E+04  0.13560869615E+04  0.12499789541E+03 0.  0.
         24    2    1    2    0    0  0.17848709071E+01  0.73973934832E+02 -0.12775948378E+03  0.16694554122E+03  0.77929450390E+02 0.  0.
        -11    1    3    3    0    0  0.24546848972E+02 -0.54683364453E+02 -0.29592548404E+03  0.30193494373E+03  0.00000000000E+00 0.  1.
         12    1    3    3    0    0 -0.25799728607E+02  0.80816088876E+01 -0.57339150953E+02  0.63393348472E+02  0.00000000000E+00 0. -1.
        -11    1    5    5    0    0  0.11031376260E+02  0.52055959259E+02 -0.13241397918E+03  0.14270590751E+03  0.00000000000E+00 0.  1.
         12    1    5    5    0    0 -0.92465053531E+01  0.21917975574E+02  0.46544954054E+01  0.24239633701E+02  0.00000000000E+00 0. -1.
          5    1    4    4  501    0  0.98104168518E+00  0.38531081389E+02  0.24471674688E+03  0.24777809200E+03  0.47000000000E+01 0. -1.
         -5    1    4    4    0  501 -0.12152962255E+03 -0.58608758951E+02  0.11000554642E+04  0.11083088695E+04  0.47000000000E+01 0. -1.
          1    1    1    2  502    0  0.46751827025E+02  0.29672540654E+02  0.25340006940E+04  0.25346056321E+04  0.00000000000E+00 0. -1.
          1    1    1    2  503    0  0.73264762569E+02 -0.36967042360E+02 -0.10958599118E+04  0.10989282206E+04  0.00000000000E+00 0. -1.
<mgrwt>
<rscale>  0 0.67422745E+02</rscale>
<asrwt>0</asrwt>
<pdfrwt beam="1">  1        2 0.57527820E+00 0.55373216E+02</pdfrwt>
<pdfrwt beam="2">  1        2 0.23676513E+00 0.82094320E+02</pdfrwt>
<totfact> 0.21418433E+00</totfact>
</mgrwt>
</event>
<event>
13    1  0.2101801E-008  0.1661947E+03  0.7546771E-02  0.1343702E+00
          2   -1    0    0  503    0  0.00000000000E+00  0.00000000000E+00  0.23590126067E+04  0.23590126067E+04  0.00000000000E+00 0. -1.
          2   -1    0    0  502    0 -0.00000000000E+00 -0.00000000000E+00 -0.13016457150E+04  0.13016457150E+04  0.00000000000E+00 0. -1.
         24    2    1    2    0    0  0.45901142387E+02  0.60763714768E+02 -0.49407497562E+03  0.50627449854E+03  0.80029009926E+02 0.  0.
         25    2    1    2    0    0  0.10455855077E+03  0.28446321252E+03  0.95757811545E+03  0.10121418556E+04  0.12499391514E+03 0.  0.
         24    2    1    2    0    0 -0.14867627873E+02 -0.81879281678E+02 -0.74868188326E+01  0.11612312400E+03  0.80642819555E+02 0.  0.
        -11    1    5    5    0    0 -0.46703119183E+02 -0.64265369659E+02 -0.34733311875E+01  0.79519073865E+02  0.00000000000E+00 0.  1.
         12    1    5    5    0    0  0.31835491310E+02 -0.17613912019E+02 -0.40134876451E+01  0.36604050140E+02  0.00000000000E+00 0. -1.
        -13    1    3    3    0    0  0.48448576906E+02  0.53569420427E+01 -0.31671626388E+03  0.32044524219E+03  0.00000000000E+00 0.  1.
         14    1    3    3    0    0 -0.25474345190E+01  0.55406772725E+02 -0.17735871174E+03  0.18582925635E+03  0.00000000000E+00 0. -1.
          5    1    4    4  501    0  0.13282601897E+03  0.22300045422E+03  0.77920600582E+03  0.82131360843E+03  0.47000000000E+01 0. -1.
         -5    1    4    4    0  501 -0.28267468196E+02  0.61462758306E+02  0.17837210964E+03  0.19082824716E+03  0.47000000000E+01 0. -1.
          1    1    1    2  502    0 -0.11568201433E+03 -0.29077902460E+03 -0.67778013014E+03  0.74653913119E+03  0.00000000000E+00 0. -1.
          1    1    1    2  503    0 -0.19910050951E+02  0.27431378987E+02  0.12791307008E+04  0.12795797124E+04  0.00000000000E+00 0. -1.
<mgrwt>
<rscale>  0 0.75054758E+02</rscale>
<asrwt>0</asrwt>
<pdfrwt beam="1">  1        2 0.34691362E+00 0.33895290E+02</pdfrwt>
<pdfrwt beam="2">  1        2 0.19141849E+00 0.16619467E+03</pdfrwt>
<totfact> 0.21487231E+01</totfact>
</mgrwt>
</event>
<event>
13    1  0.2101801E-008  0.6795688E+02  0.7546771E-02  0.1380449E+00
          2   -1    0    0  503    0  0.00000000000E+00  0.00000000000E+00  0.17363264625E+04  0.17363264625E+04  0.00000000000E+00 0. -1.
         -3   -1    0    0    0  501 -0.00000000000E+00 -0.00000000000E+00 -0.21320115820E+03  0.21320115820E+03  0.00000000000E+00 0.  1.
         24    2    1    2    0    0  0.59078510547E+02 -0.17261554142E+02  0.26649496677E+02  0.10402473830E+03  0.79515525811E+02 0.  0.
         25    2    1    2    0    0 -0.94794278441E+02  0.20093059136E+03  0.61779321116E+03  0.66832594348E+03  0.12502822560E+03 0.  0.
         24    2    1    2    0    0  0.61730959524E+02 -0.13289913203E+03  0.42221947177E+03  0.45406382211E+03  0.80198388701E+02 0.  0.
        -11    1    3    3    0    0  0.43786138006E+02 -0.41622959015E+02 -0.57665203134E+01  0.60687308023E+02  0.00000000000E+00 0.  1.
         12    1    3    3    0    0  0.15292372541E+02  0.24361404872E+02  0.32416016991E+02  0.43337430275E+02  0.00000000000E+00 0. -1.
        -13    1    5    5    0    0  0.23863722381E+02 -0.19035646450E+02  0.26081621202E+02  0.40150766446E+02  0.00000000000E+00 0.  1.
         14    1    5    5    0    0  0.37867237142E+02 -0.11386348558E+03  0.39613785057E+03  0.41391305566E+03  0.00000000000E+00 0. -1.
          5    1    4    4  502    0 -0.10204578776E+03  0.21521763710E+03  0.57838523262E+03  0.62552661128E+03  0.47000000000E+01 0. -1.
         -5    1    4    4    0  502  0.72515093149E+01 -0.14287045735E+02  0.39407978543E+02  0.42799332191E+02  0.47000000000E+01 0. -1.
          1    1    1    2  503    0  0.34243240501E+02 -0.59770842922E+02  0.58068379560E+03  0.58475535368E+03  0.00000000000E+00 0. -1.
         -4    1    1    2    0  501 -0.60258432131E+02  0.90009377257E+01 -0.12422067093E+03  0.13835776310E+03  0.00000000000E+00 0.  1.
<mgrwt>
<rscale>  0 0.64345993E+02</rscale>
<asrwt>0</asrwt>
<pdfrwt beam="1">  1        2 0.25534212E+00 0.67956881E+02</pdfrwt>
<pdfrwt beam="2">  1       -3 0.31353112E-01 0.60926969E+02</pdfrwt>
<totfact> 0.71450067E+01</totfact>
</mgrwt>
</event>
<event>
13    1  0.2101801E-008  0.5846233E+02  0.7546771E-02  0.1437665E+00
          2   -1    0    0  503    0  0.00000000000E+00  0.00000000000E+00  0.33821579065E+04  0.33821579065E+04  0.00000000000E+00 0. -1.
          2   -1    0    0  502    0 -0.00000000000E+00 -0.00000000000E+00 -0.10412567925E+04  0.10412567925E+04  0.00000000000E+00 0. -1.
         24    2    1    2    0    0 -0.39713553805E+03  0.38117025567E+03 -0.68083865021E+02  0.56006989107E+03  0.77688292649E+02 0.  0.
         25    2    1    2    0    0  0.25055696570E+03 -0.41641790766E+03 -0.45413336814E+02  0.50384994474E+03  0.12497891332E+03 0.  0.
         24    2    1    2    0    0  0.13420097707E+03  0.30005014796E+02 -0.90468396734E+02  0.18301004597E+03  0.79987142453E+02 0.  0.
        -11    1    5    5    0    0  0.26211140149E+02  0.41887532482E+02 -0.38156695461E+02  0.62430142190E+02  0.00000000000E+00 0.  1.
         12    1    5    5    0    0  0.10798983692E+03 -0.11882517686E+02 -0.52311701272E+02  0.12057990378E+03  0.00000000000E+00 0. -1.
        -13    1    3    3    0    0 -0.24953040160E+03  0.26332954159E+03 -0.11731460034E+02  0.36296762383E+03  0.00000000000E+00 0.  1.
         14    1    3    3    0    0 -0.14760513645E+03  0.11784071408E+03 -0.56352404987E+02  0.19710226724E+03  0.00000000000E+00 0. -1.
          5    1    4    4  501    0  0.11430646424E+03 -0.18877780187E+03 -0.83066402187E+02  0.23584983235E+03  0.47000000000E+01 0. -1.
         -5    1    4    4    0  501  0.13625050145E+03 -0.22764010579E+03  0.37653065372E+02  0.26800011239E+03  0.47000000000E+01 0. -1.
          1    1    1    2  502    0 -0.36923448538E+02 -0.26212568049E+02 -0.31388529734E+03  0.31713470271E+03  0.00000000000E+00 0. -1.
          1    1    1    2  503    0  0.49301043819E+02  0.31455205239E+02  0.28587520099E+04  0.28593501144E+04  0.00000000000E+00 0. -1.
<mgrwt>
<rscale>  0 0.51451708E+02</rscale>
<asrwt>0</asrwt>
<pdfrwt beam="1">  1        2 0.49737616E+00 0.58462325E+02</pdfrwt>
<pdfrwt beam="2">  1        2 0.15312600E+00 0.45281782E+02</pdfrwt>
<totfact> 0.88499345E+00</totfact>
</mgrwt>
</event>
<event>
13    1  0.2101801E-008  0.1570624E+03  0.7546771E-02  0.1304505E+00
          2   -1    0    0  503    0  0.00000000000E+00  0.00000000000E+00  0.33495460891E+03  0.33495460891E+03  0.00000000000E+00 0. -1.
          2   -1    0    0  502    0 -0.00000000000E+00 -0.00000000000E+00 -0.26916224497E+04  0.26916224497E+04  0.00000000000E+00 0. -1.
         24    2    1    2    0    0  0.40280113733E+02  0.16898700940E+02 -0.15253485057E+04  0.15281063318E+04  0.80702192396E+02 0.  0.
         25    2    1    2    0    0 -0.29729827568E+03 -0.15808549695E+02 -0.25252185820E+03  0.40991447871E+03  0.12500566394E+03 0.  0.
         24    2    1    2    0    0  0.86923983625E+02 -0.35975878722E+02  0.11057507390E+03  0.16550159109E+03  0.79459970459E+02 0.  0.
        -11    1    3    3    0    0 -0.23076350294E+02  0.30983701331E+01 -0.24101907622E+03  0.24214110131E+03  0.00000000000E+00 0.  1.
         12    1    3    3    0    0  0.63356464027E+02  0.13800330806E+02 -0.12843294294E+04  0.12859652305E+04  0.00000000000E+00 0. -1.
        -13    1    5    5    0    0  0.79080505734E+01 -0.12208443108E+02 -0.11232134343E+02  0.18377817849E+02  0.00000000000E+00 0.  1.
         14    1    5    5    0    0  0.79015933051E+02 -0.23767435613E+02  0.12180720825E+03  0.14712377324E+03  0.00000000000E+00 0. -1.
          5    1    4    4  501    0 -0.19036447702E+03 -0.69839523552E+02 -0.15223620416E+03  0.25360233638E+03  0.47000000000E+01 0. -1.
         -5    1    4    4    0  501 -0.10693379866E+03  0.54030973856E+02 -0.10028565405E+03  0.15631214233E+03  0.47000000000E+01 0. -1.
          1    1    1    2  502    0  0.50793029360E+02  0.56362677895E+00 -0.77216812590E+03  0.77383710441E+03  0.00000000000E+00 0. -1.
          1    1    1    2  503    0  0.11930114896E+03  0.34322100699E+02  0.82795575111E+02  0.14921755258E+03  0.00000000000E+00 0. -1.
<mgrwt>
<rscale>  0 0.89320576E+02</rscale>
<asrwt>0</asrwt>
<pdfrwt beam="1">  1        2 0.49258030E-01 0.15706238E+03</pdfrwt>
<pdfrwt beam="2">  1        2 0.39582684E+00 0.50796156E+02</pdfrwt>
<totfact> 0.72893932E+01</totfact>
</mgrwt>
</event>
<event>
13    1  0.2101801E-008  0.6675300E+02  0.7546771E-02  0.1411293E+00
          2   -1    0    0  502    0  0.00000000000E+00  0.00000000000E+00  0.25453333958E+04  0.25453333958E+04  0.00000000000E+00 0. -1.
          2   -1    0    0  503    0 -0.00000000000E+00 -0.00000000000E+00 -0.20980003346E+03  0.20980003346E+03  0.00000000000E+00 0. -1.
         24    2    1    2    0    0  0.35444737745E+02 -0.84523017877E+02  0.12498883456E+03  0.17463152943E+03  0.80458015904E+02 0.  0.
         25    2    1    2    0    0 -0.17126870025E+03  0.75270880490E+02  0.12453467554E+04  0.12655086080E+04  0.12499928971E+03 0.  0.
         24    2    1    2    0    0  0.29293292579E+02  0.33105840340E+01  0.11052212845E+03  0.14036043974E+03  0.81344054544E+02 0.  0.
        -11    1    3    3    0    0 -0.12527596024E+00  0.50889436011E+01 -0.85348010589E+01  0.99375988124E+01  0.00000000000E+00 0.  1.
         12    1    3    3    0    0  0.35570013706E+02 -0.89611961478E+02  0.13352363562E+03  0.16469393062E+03  0.00000000000E+00 0. -1.
        -13    1    5    5    0    0  0.27043600852E+02  0.11339649091E+02  0.12239116140E+03  0.12585523579E+03  0.00000000000E+00 0.  1.
         14    1    5    5    0    0  0.22496917271E+01 -0.80290650573E+01 -0.11869032943E+02  0.14505203948E+02  0.00000000000E+00 0. -1.
          5    1    4    4  501    0 -0.13915576137E+03  0.97101588058E+02  0.11498433797E+04  0.11623058686E+04  0.47000000000E+01 0.  1.
         -5    1    4    4    0  501 -0.32112938882E+02 -0.21830707568E+02  0.95503375677E+02  0.10320273932E+03  0.47000000000E+01 0.  1.
          1    1    1    2  502    0  0.42339916789E+02  0.23680549354E+02  0.10071141865E+04  0.10082819157E+04  0.00000000000E+00 0. -1.
          1    1    1    2  503    0  0.64190753137E+02 -0.17738996001E+02 -0.15243854260E+03  0.16635093638E+03  0.00000000000E+00 0. -1.
<mgrwt>
<rscale>  0 0.56906390E+02</rscale>
<asrwt>0</asrwt>
<pdfrwt beam="1">  1        2 0.37431372E+00 0.48512235E+02</pdfrwt>
<pdfrwt beam="2">  1        2 0.30852948E-01 0.66752999E+02</pdfrwt>
<totfact> 0.14027216E+02</totfact>
</mgrwt>
</event>
<event>
13    1  0.2101801E-008  0.1120156E+03  0.7546771E-02  0.1259227E+00
         -1   -1    0    0    0  501 -0.00000000000E+00  0.00000000000E+00  0.59659535383E+03  0.59659535383E+03  0.00000000000E+00 0.  1.
          2   -1    0    0  503    0  0.00000000000E+00 -0.00000000000E+00 -0.33306871902E+04  0.33306871902E+04  0.00000000000E+00 0. -1.
         24    2    1    2    0    0  0.77337579289E+01  0.60341700862E+02  0.18458748372E+03  0.20971967610E+03  0.78796392830E+02 0.  0.
         25    2    1    2    0    0  0.20783132572E+03 -0.26269745868E+03 -0.32204124004E+03  0.48118461149E+03  0.12499702116E+03 0.  0.
         24    2    1    2    0    0 -0.94182483466E+02  0.15953389729E+03 -0.23954616970E+03  0.31324526629E+03  0.80117568997E+02 0.  0.
        -11    1    5    5    0    0 -0.10849292021E+03  0.13832507502E+03 -0.20164647426E+03  0.26751792593E+03  0.00000000000E+00 0.  1.
         12    1    5    5    0    0  0.14310436746E+02  0.21208822273E+02 -0.37899695437E+02  0.45727340359E+02  0.00000000000E+00 0. -1.
        -11    1    3    3    0    0 -0.21892471258E+02  0.63275855674E+02  0.10280088526E+03  0.12268307226E+03  0.00000000000E+00 0.  1.
         12    1    3    3    0    0  0.29626229187E+02 -0.29341548118E+01  0.81786598458E+02  0.87036603838E+02  0.00000000000E+00 0. -1.
          5    1    4    4  502    0 -0.67736040308E+01 -0.63785345678E+02 -0.68759188620E+02  0.94150772989E+02  0.47000000000E+01 0. -1.
         -5    1    4    4    0  502  0.21460492975E+03 -0.19891211301E+03 -0.25328205142E+03  0.38703383850E+03  0.47000000000E+01 0. -1.
          1    1    1    2  503    0  0.88897538132E+01  0.10892001761E+03 -0.26200471427E+04  0.26223252330E+04  0.00000000000E+00 0. -1.
         -2    1    1    2    0  501 -0.13027235400E+03 -0.66098157083E+02  0.26295523227E+03  0.30080775716E+03  0.00000000000E+00 0.  1.
<mgrwt>
<rscale>  0 0.11072813E+03</rscale>
<asrwt>0</asrwt>
<pdfrwt beam="2">  1        2 0.48980694E+00 0.10945549E+03</pdfrwt>
<pdfrwt beam="1">  1       -1 0.87734611E-01 0.11201557E+03</pdfrwt>
<totfact> 0.29958526E+00</totfact>
</mgrwt>
</event>
<event>
13    1  0.2101801E-008  0.1105396E+03  0.7546771E-02  0.1342909E+00
          2   -1    0    0  502    0  0.00000000000E+00  0.00000000000E+00  0.30936864734E+04  0.30936864734E+04  0.00000000000E+00 0. -1.
          2   -1    0    0  503    0 -0.00000000000E+00 -0.00000000000E+00 -0.87694008997E+03  0.87694008997E+03  0.00000000000E+00 0. -1.
         24    2    1    2    0    0 -0.69023960251E+02  0.80650768892E+02 -0.17448930161E+03  0.21902984782E+03  0.79111972857E+02 0.  0.
         25    2    1    2    0    0  0.12886230585E+03 -0.73846616625E+02  0.22496023292E+04  0.22579613892E+04  0.12498071486E+03 0.  0.
         24    2    1    2    0    0 -0.22163026457E+03  0.61418601063E+02 -0.42205250158E+02  0.25879276969E+03  0.11090624767E+03 0.  0.
        -13    1    5    5    0    0  0.29952624363E+01 -0.16373013761E+02  0.27340160841E+01  0.16867780549E+02  0.00000000000E+00 0.  1.
         14    1    5    5    0    0 -0.22462552701E+03  0.77791614824E+02 -0.44939266243E+02  0.24192498914E+03  0.00000000000E+00 0. -1.
        -13    1    3    3    0    0  0.34104770859E+01  0.21837578920E+02 -0.10996920570E+01  0.22129630129E+02  0.00000000000E+00 0.  1.
         14    1    3    3    0    0 -0.72434437337E+02  0.58813189972E+02 -0.17338960955E+03  0.19690021769E+03  0.00000000000E+00 0. -1.
          5    1    4    4  501    0  0.14745272450E+03 -0.68580369937E+02  0.16434196284E+04  0.16514526146E+04  0.47000000000E+01 0.  1.
         -5    1    4    4    0  501 -0.18590418653E+02 -0.52662466883E+01  0.60618270073E+03  0.60650877462E+03  0.47000000000E+01 0.  1.
          1    1    1    2  502    0  0.24650501317E+02 -0.45001182672E+02  0.69917991664E+03  0.70106013258E+03  0.00000000000E+00 0. -1.
          1    1    1    2  503    0  0.13714141766E+03 -0.23221570658E+02 -0.51534131064E+03  0.53378242405E+03  0.00000000000E+00 0. -1.
<mgrwt>
<rscale>  0 0.75311541E+02</rscale>
<asrwt>0</asrwt>
<pdfrwt beam="1">  1        2 0.45495389E+00 0.51310366E+02</pdfrwt>
<pdfrwt beam="2">  1        2 0.12896178E+00 0.11053962E+03</pdfrwt>
<totfact> 0.15528091E+01</totfact>
</mgrwt>
</event>
<event>
13    1  0.2101801E-008  0.1198482E+03  0.7546771E-02  0.1372364E+00
          2   -1    0    0  503    0  0.00000000000E+00  0.00000000000E+00  0.21620859896E+04  0.21620859896E+04  0.00000000000E+00 0. -1.
          2   -1    0    0  502    0 -0.00000000000E+00 -0.00000000000E+00 -0.16170534164E+04  0.16170534164E+04  0.00000000000E+00 0. -1.
         24    2    1    2    0    0  0.63951453402E+02 -0.88092855972E+02 -0.28566234548E+03  0.31626397472E+03  0.81054218987E+02 0.  0.
         25    2    1    2    0    0 -0.16023901134E+02 -0.38190745282E+02  0.11126711673E+02  0.13215722200E+03  0.12500571660E+03 0.  0.
         24    2    1    2    0    0 -0.98785564088E+00  0.44683572281E+02 -0.29147974906E+02  0.90351202609E+02  0.72911850074E+02 0.  0.
        -13    1    3    3    0    0  0.26738981735E+02 -0.23575857296E+02 -0.21115291439E+02  0.41432471855E+02  0.00000000000E+00 0.  1.
         14    1    3    3    0    0  0.37212471666E+02 -0.64516998676E+02 -0.26454705404E+03  0.27483150286E+03  0.00000000000E+00 0. -1.
        -13    1    5    5    0    0 -0.30125598391E+02  0.91428206372E+01 -0.31231550318E+02  0.44345829374E+02  0.00000000000E+00 0.  1.
         14    1    5    5    0    0  0.29137742750E+02  0.35540751644E+02  0.20835754114E+01  0.46005373235E+02  0.00000000000E+00 0. -1.
          5    1    4    4  501    0  0.32437773209E+02  0.31851901235E+02  0.10300664039E+02  0.46850255310E+02  0.47000000000E+01 0.  1.
         -5    1    4    4    0  501 -0.48461674343E+02 -0.70042646517E+02  0.82604763447E+00  0.85306966690E+02  0.47000000000E+01 0.  1.
          1    1    1    2  502    0 -0.31478727291E+02  0.11512096461E+03 -0.11926803212E+04  0.11986367654E+04  0.00000000000E+00 0. -1.
          1    1    1    2  503    0 -0.15460969336E+02 -0.33520935636E+02  0.20413965031E+04  0.20417302412E+04  0.00000000000E+00 0. -1.
<mgrwt>
<rscale>  0 0.66514370E+02</rscale>
<asrwt>0</asrwt>
<pdfrwt beam="1">  1        2 0.31795382E+00 0.36914695E+02</pdfrwt>
<pdfrwt beam="2">  1        2 0.23780197E+00 0.11984825E+03</pdfrwt>
<totfact> 0.18551375E+01</totfact>
</mgrwt>
</event>
<event>
13    1  0.2101801E-008  0.4017512E+02  0.7546771E-02  0.1548264E+00
          2   -1    0    0  503    0  0.00000000000E+00  0.00000000000E+00  0.33051540049E+04  0.33051540049E+04  0.00000000000E+00 0. -1.
         -1   -1    0    0    0  501 -0.00000000000E+00 -0.00000000000E+00 -0.16855222028E+04  0.16855222028E+04  0.00000000000E+00 0.  1.
         24    2    1    2    0    0 -0.71604227752E+03  0.68434040355E+03  0.30696901705E+03  0.10401870184E+04  0.81980026763E+02 0.  0.
         25    2    1    2    0    0 -0.38957751979E+03 -0.44997029245E+03  0.71299110114E+03  0.93713743047E+03  0.12500538101E+03 0.  0.
         24    2    1    2    0    0  0.11092953958E+04 -0.24494619797E+03  0.16766719850E+03  0.11514909320E+04  0.85347302126E+02 0.  0.
        -11    1    3    3    0    0 -0.35090765791E+03  0.28042174811E+03  0.12903155194E+03  0.46735605548E+03  0.00000000000E+00 0.  1.
         12    1    3    3    0    0 -0.36513461962E+03  0.40391865543E+03  0.17793746511E+03  0.57283096297E+03  0.00000000000E+00 0. -1.
        -11    1    5    5    0    0  0.71353289221E+03 -0.15719105627E+03  0.14903861178E+03  0.74568808777E+03  0.00000000000E+00 0.  1.
         12    1    5    5    0    0  0.39576250360E+03 -0.87755141704E+02  0.18628586714E+02  0.40580284424E+03  0.00000000000E+00 0. -1.
          5    1    4    4  502    0 -0.38267744306E+03 -0.39504905450E+03  0.61994981061E+03  0.82877357496E+03  0.47000000000E+01 0. -1.
         -5    1    4    4    0  502 -0.69000767253E+01 -0.54921237952E+02  0.93041290530E+02  0.10836385551E+03  0.47000000000E+01 0. -1.
          1    1    1    2  503    0  0.50144039350E+01  0.39871977646E+02  0.11462538625E+04  0.11469580795E+04  0.00000000000E+00 0. -1.
         -2    1    1    2    0  501 -0.86900024401E+01 -0.29295890775E+02 -0.71424937706E+03  0.71490274722E+03  0.00000000000E+00 0.  1.
<mgrwt>
<rscale>  0 0.35037896E+02</rscale>
<asrwt>0</asrwt>
<pdfrwt beam="1">  1        2 0.48605206E+00 0.40175119E+02</pdfrwt>
<pdfrwt beam="2">  1       -1 0.24787091E+00 0.30557574E+02</pdfrwt>
<totfact> 0.27734022E-01</totfact>
</mgrwt>
</event>
<event>
13    1  0.2101801E-008  0.1770497E+03  0.7546771E-02  0.1237365E+00
          2   -1    0    0  503    0  0.00000000000E+00  0.00000000000E+00  0.10075928957E+04  0.10075928957E+04  0.00000000000E+00 0. -1.
          2   -1    0    0  502    0 -0.00000000000E+00 -0.00000000000E+00 -0.13258865501E+04  0.13258865501E+04  0.00000000000E+00 0. -1.
         24    2    1    2    0    0 -0.11451960655E+03 -0.81539657071E+02 -0.39151819237E+03  0.42357651102E+03  0.79794171274E+02 0.  0.
         25    2    1    2    0    0 -0.94614993621E+02 -0.56869834272E+02 -0.11716895932E+02  0.16718052007E+03  0.12500346224E+03 0.  0.
         24    2    1    2    0    0 -0.60839689262E+02  0.12710584706E+02  0.69634256790E+03  0.70349319778E+03  0.78400769748E+02 0.  0.
        -11    1    3    3    0    0 -0.62632526035E+02 -0.13446212434E+02 -0.92296369710E+02  0.11234880421E+03  0.00000000000E+00 0.  1.
         12    1    3    3    0    0 -0.51887080514E+02 -0.68093444637E+02 -0.29922182266E+03  0.31122770681E+03  0.00000000000E+00 0. -1.
        -13    1    5    5    0    0 -0.55016437320E+01 -0.28328635434E+02  0.28069590342E+03  0.28217542393E+03  0.00000000000E+00 0.  1.
         14    1    5    5    0    0 -0.55338045530E+02  0.41039220140E+02  0.41564666448E+03  0.42131777385E+03  0.00000000000E+00 0. -1.
          5    1    4    4  501    0 -0.48982655548E+02 -0.72869874272E+01  0.53663470362E+02  0.73172800832E+02  0.47000000000E+01 0.  1.
         -5    1    4    4    0  501 -0.45632338073E+02 -0.49582846845E+02 -0.65380366294E+02  0.94007719236E+02  0.47000000000E+01 0.  1.
          1    1    1    2  502    0  0.25323262273E+03  0.21026368175E+03 -0.78180163182E+03  0.84826373764E+03  0.00000000000E+00 0. -1.
          1    1    1    2  503    0  0.16741666703E+02 -0.84564775110E+02  0.17040049788E+03  0.19096547926E+03  0.00000000000E+00 0. -1.
<mgrwt>
<rscale>  0 0.12354252E+03</rscale>
<asrwt>0</asrwt>
<pdfrwt beam="1">  1        2 0.14817543E+00 0.86206059E+02</pdfrwt>
<pdfrwt beam="2">  1        2 0.19498332E+00 0.17704968E+03</pdfrwt>
<totfact> 0.86065029E+01</totfact>
</mgrwt>
</event>
<event>
13    1  0.2101801E-008  0.8024338E+02  0.7546771E-02  0.1359081E+00
          2   -1    0    0  503    0  0.00000000000E+00  0.00000000000E+00  0.11117732379E+04  0.11117732379E+04  0.00000000000E+00 0. -1.
          2   -1    0    0  502    0 -0.00000000000E+00 -0.00000000000E+00 -0.25476936769E+04  0.25476936769E+04  0.00000000000E+00 0. -1.
         24    2    1    2    0    0 -0.42930809226E+02 -0.18212603843E+02 -0.24766715813E+03  0.26342411914E+03  0.76671324543E+02 0.  0.
         25    2    1    2    0    0  0.10245626545E+03  0.11555962922E+03  0.40643788106E+03  0.45239859529E+03  0.12498569371E+03 0.  0.
         24    2    1    2    0    0  0.20764111775E+02  0.33120817056E+01  0.15691882543E+02  0.82532342475E+02  0.78251096820E+02 0.  0.
        -11    1    3    3    0    0  0.31212700046E+01 -0.32027444090E+02 -0.46218682073E+02  0.56317546768E+02  0.00000000000E+00 0.  1.
         12    1    3    3    0    0 -0.46052079230E+02  0.13814840247E+02 -0.20144847606E+03  0.20710657237E+03  0.00000000000E+00 0. -1.
        -13    1    5    5    0    0  0.11929105905E+02 -0.37457351752E+02  0.76722045374E+01  0.40052708902E+02  0.00000000000E+00 0.  1.
         14    1    5    5    0    0  0.88350058700E+01  0.40769433457E+02  0.80196780053E+01  0.42479633573E+02  0.00000000000E+00 0. -1.
          5    1    4    4  501    0  0.12704209729E+03  0.10463264363E+03  0.38108448817E+03  0.41513270375E+03  0.47000000000E+01 0.  1.
         -5    1    4    4    0  501 -0.24585831849E+02  0.10926985586E+02  0.25353392888E+02  0.37265891545E+02  0.47000000000E+01 0.  1.
          1    1    1    2  502    0 -0.56595019528E+02 -0.24286210481E+02 -0.22327649081E+04  0.22336141008E+04  0.00000000000E+00 0. -1.
          1    1    1    2  503    0 -0.23694548467E+02 -0.76372896596E+02  0.62238186364E+03  0.62749775708E+03  0.00000000000E+00 0. -1.
<mgrwt>
<rscale>  0 0.70298340E+02</rscale>
<asrwt>0</asrwt>
<pdfrwt beam="1">  1        2 0.16349607E+00 0.80243384E+02</pdfrwt>
<pdfrwt beam="2">  1        2 0.37466083E+00 0.61585845E+02</pdfrwt>
<totfact> 0.21177110E+01</totfact>
</mgrwt>
</event>
<event>
13    1  0.2101801E-008  0.3459837E+02  0.7546771E-02  0.1581436E+00
          2   -1    0    0  503    0  0.00000000000E+00  0.00000000000E+00  0.21684299701E+04  0.21684299701E+04  0.00000000000E+00 0. -1.
          2   -1    0    0  502    0 -0.00000000000E+00 -0.00000000000E+00 -0.58390644975E+03  0.58390644975E+03  0.00000000000E+00 0. -1.
         24    2    1    2    0    0  0.12955886957E+03  0.52122153012E+02  0.14511714755E+03  0.21709433116E+03  0.81047779665E+02 0.  0.
         25    2    1    2    0    0 -0.21810714128E+03 -0.11130047782E+03  0.17926142478E+03  0.32819393386E+03  0.12497231038E+03 0.  0.
         24    2    1    2    0    0  0.42660396230E+02  0.39690736039E+02  0.94297946021E+03  0.94821282483E+03  0.80635196081E+02 0.  0.
        -13    1    5    5    0    0  0.63698884345E+02  0.18225098425E+02  0.52691504843E+03  0.53106418665E+03  0.00000000000E+00 0.  1.
         14    1    5    5    0    0 -0.21038488116E+02  0.21465637613E+02  0.41606441179E+03  0.41714863818E+03  0.00000000000E+00 0. -1.
        -13    1    3    3    0    0  0.48921546576E+02  0.62685176257E+02  0.62221721388E+02  0.10096678491E+03  0.00000000000E+00 0.  1.
         14    1    3    3    0    0  0.80637322995E+02 -0.10563023245E+02  0.82895426164E+02  0.11612754625E+03  0.00000000000E+00 0. -1.
          5    1    4    4  501    0 -0.10360350134E+03 -0.46132657322E+02  0.10426586254E+02  0.11398557480E+03  0.47000000000E+01 0.  1.
         -5    1    4    4    0  501 -0.11450363995E+03 -0.65167820496E+02  0.16883483853E+03  0.21420835906E+03  0.47000000000E+01 0.  1.
          1    1    1    2  502    0  0.27154200941E+02 -0.95734811874E+01 -0.47001489558E+03  0.47089595904E+03  0.00000000000E+00 0. -1.
          1    1    1    2  503    0  0.18733674543E+02  0.29061069956E+02  0.78718038333E+03  0.78793937092E+03  0.00000000000E+00 0. -1.
<mgrwt>
<rscale>  0 0.31562164E+02</rscale>
<asrwt>0</asrwt>
<pdfrwt beam="1">  1        2 0.31888676E+00 0.34598375E+02</pdfrwt>
<pdfrwt beam="2">  1        2 0.85868596E-01 0.28792398E+02</pdfrwt>
<totfact> 0.76821454E+01</totfact>
</mgrwt>
</event>
<event>
13    1  0.2101801E-008  0.7468570E+02  0.7546771E-02  0.1350703E+00
          2   -1    0    0  503    0  0.00000000000E+00  0.00000000000E+00  0.32353647498E+04  0.32353647498E+04  0.00000000000E+00 0. -1.
         -3   -1    0    0    0  501 -0.00000000000E+00 -0.00000000000E+00 -0.51641836652E+03  0.51641836652E+03  0.00000000000E+00 0.  1.
         24    2    1    2    0    0  0.10590056868E+02 -0.21765429615E+02 -0.39200131553E+02  0.93726906273E+02  0.81622297290E+02 0.  0.
         25    2    1    2    0    0 -0.25584340719E+02  0.18977000578E+03  0.12258795275E+04  0.12470259651E+04  0.12500371231E+03 0.  0.
         24    2    1    2    0    0  0.66056633231E+02 -0.54015518033E+02  0.22559623166E+03  0.25321976412E+03  0.77106641875E+02 0.  0.
        -11    1    3    3    0    0  0.45388619658E+02 -0.17707929762E+02 -0.14403299122E+02  0.50805044990E+02  0.00000000000E+00 0.  1.
         12    1    3    3    0    0 -0.34798562790E+02 -0.40574998531E+01 -0.24796832431E+02  0.42921861282E+02  0.00000000000E+00 0. -1.
        -13    1    5    5    0    0  0.39891745913E+02  0.13814279620E+02  0.87740695127E+02  0.97368451230E+02  0.00000000000E+00 0.  1.
         14    1    5    5    0    0  0.26164887318E+02 -0.67829797652E+02  0.13785553653E+03  0.15585131289E+03  0.00000000000E+00 0. -1.
          5    1    4    4  502    0  0.34750635295E+01  0.23681589265E+02  0.27194478405E+02  0.36531129087E+02  0.47000000000E+01 0.  1.
         -5    1    4    4    0  502 -0.29059404248E+02  0.16608841652E+03  0.11986850491E+04  0.12104948360E+04  0.47000000000E+01 0. -1.
          1    1    1    2  503    0  0.76430518155E+01 -0.73995418617E+02  0.17284708731E+04  0.17300708937E+04  0.00000000000E+00 0. -1.
         -4    1    1    2    0  501 -0.58705401195E+02 -0.39993639519E+02 -0.42180011741E+03  0.42773958710E+03  0.00000000000E+00 0.  1.
<mgrwt>
<rscale>  0 0.72836921E+02</rscale>
<asrwt>0</asrwt>
<pdfrwt beam="1">  1        2 0.47578892E+00 0.74685704E+02</pdfrwt>
<pdfrwt beam="2">  1       -3 0.75943879E-01 0.71033903E+02</pdfrwt>
<totfact> 0.22668912E+00</totfact>
</mgrwt>
</event>
<event>
13    1  0.2101801E-008  0.6167321E+02  0.7546771E-02  0.1437848E+00
          2   -1    0    0  503    0  0.00000000000E+00  0.00000000000E+00  0.29248112733E+04  0.29248112733E+04  0.00000000000E+00 0. -1.
         -1   -1    0    0    0  501 -0.00000000000E+00 -0.00000000000E+00 -0.93043835399E+03  0.93043835399E+03  0.00000000000E+00 0.  1.
         24    2    1    2    0    0 -0.12234705586E+03  0.18260918185E+03 -0.97223602294E+02  0.25390010095E+03  0.81840803048E+02 0.  0.
         25    2    1    2    0    0  0.10984290723E+03 -0.20775785976E+03  0.21144165764E+02  0.26702051423E+03  0.12499634681E+03 0.  0.
         24    2    1    2    0    0  0.35126136903E+02  0.11260484543E+02  0.40080803948E+03  0.41106846816E+03  0.83483872699E+02 0.  0.
        -13    1    3    3    0    0 -0.82855534526E+01 -0.69993206115E+01 -0.13501698805E+02  0.17318682273E+02  0.00000000000E+00 0.  1.
         14    1    3    3    0    0 -0.11406150240E+03  0.18960850247E+03 -0.83721903488E+02  0.23658141867E+03  0.00000000000E+00 0. -1.
        -13    1    5    5    0    0  0.58172671676E+02 -0.77523979775E+01  0.21465002937E+03  0.22252818813E+03  0.00000000000E+00 0.  1.
         14    1    5    5    0    0 -0.23046534773E+02  0.19012882520E+02  0.18615801010E+03  0.18854028003E+03  0.00000000000E+00 0. -1.
          5    1    4    4  502    0  0.99309548362E+02 -0.56260561268E+02  0.10270064602E+02  0.11469612625E+03  0.47000000000E+01 0.  1.
         -5    1    4    4    0  502  0.10533358870E+02 -0.15149729849E+03  0.10874101163E+02  0.15232438798E+03  0.47000000000E+01 0.  1.
          1    1    1    2  503    0 -0.61601654045E+02 -0.39450943335E+01  0.22953041503E+04  0.22961340270E+04  0.00000000000E+00 0. -1.
         -2    1    1    2    0  501  0.38979665765E+02  0.17833287694E+02 -0.62565983392E+03  0.62712651696E+03  0.00000000000E+00 0.  1.
<mgrwt>
<rscale>  0 0.51416392E+02</rscale>
<asrwt>0</asrwt>
<pdfrwt beam="1">  1        2 0.43011930E+00 0.61673211E+02</pdfrwt>
<pdfrwt beam="2">  1       -1 0.13682917E+00 0.42865376E+02</pdfrwt>
<totfact> 0.21142352E+00</totfact>
</mgrwt>
</event>
<event>
13    1  0.2101801E-008  0.5431780E+02  0.7546771E-02  0.1444999E+00
          2   -1    0    0  503    0  0.00000000000E+00  0.00000000000E+00  0.23520050330E+04  0.23520050330E+04  0.00000000000E+00 0. -1.
         -3   -1    0    0    0  501 -0.00000000000E+00 -0.00000000000E+00 -0.27434173558E+03  0.27434173558E+03  0.00000000000E+00 0.  1.
         24    2    1    2    0    0  0.19168231661E+02  0.16478534758E+03  0.27981198966E+02  0.18752433073E+03  0.82829917548E+02 0.  0.
         25    2    1    2    0    0  0.15227843707E+03  0.79323366634E+02  0.40198672936E+03  0.45464250767E+03  0.12500224118E+03 0.  0.
         24    2    1    2    0    0 -0.16612460541E+03 -0.27500696680E+03  0.13501413969E+03  0.36397720902E+03  0.10499702117E+03 0.  0.
        -11    1    5    5    0    0 -0.10391196707E+03 -0.22856935859E+03  0.13757624456E+03  0.28630206365E+03  0.00000000000E+00 0.  1.
         12    1    5    5    0    0 -0.62212638341E+02 -0.46437608213E+02 -0.25621048672E+01  0.77675145364E+02  0.00000000000E+00 0. -1.
        -13    1    3    3    0    0  0.15852293082E+02  0.26687147093E+02 -0.24713583404E+02  0.39676948227E+02  0.00000000000E+00 0.  1.
         14    1    3    3    0    0  0.33159385781E+01  0.13809820048E+03  0.52694782370E+02  0.14784738251E+03  0.00000000000E+00 0. -1.
          5    1    4    4  502    0  0.29451397751E+02  0.84243903926E+02  0.16883801878E+03  0.19103085291E+03  0.47000000000E+01 0.  1.
         -5    1    4    4    0  502  0.12282703932E+03 -0.49205372922E+01  0.23314871059E+03  0.26361165476E+03  0.47000000000E+01 0.  1.
          1    1    1    2  503    0 -0.50317490857E+02  0.20673441762E+02  0.15559773629E+04  0.15569279993E+04  0.00000000000E+00 0. -1.
         -4    1    1    2    0  501  0.44995427535E+02  0.10224810828E+02 -0.43296133495E+02  0.63274721897E+02  0.00000000000E+00 0.  1.
<mgrwt>
<rscale>  0 0.50063580E+02</rscale>
<asrwt>0</asrwt>
<pdfrwt beam="1">  1        2 0.34588308E+00 0.54317801E+02</pdfrwt>
<pdfrwt beam="2">  1       -3 0.40344374E-01 0.46142554E+02</pdfrwt>
<totfact> 0.22968052E+01</totfact>
</mgrwt>
</event>
<event>
13    1  0.2101801E-008  0.1140408E+03  0.7546771E-02  0.1335860E+00
          2   -1    0    0  503    0  0.00000000000E+00  0.00000000000E+00  0.21893793527E+04  0.21893793527E+04  0.00000000000E+00 0. -1.
          2   -1    0    0  502    0 -0.00000000000E+00 -0.00000000000E+00 -0.14985160072E+04  0.14985160072E+04  0.00000000000E+00 0. -1.
         24    2    1    2    0    0  0.12122391788E+03 -0.40713375745E+01 -0.22569517254E+03  0.26896301191E+03  0.81798391261E+02 0.  0.
         25    2    1    2    0    0 -0.57794194295E+02 -0.16751948856E+03  0.84727591329E+03  0.87458638592E+03  0.12498770039E+03 0.  0.
         24    2    1    2    0    0 -0.16045290903E+02 -0.40984400120E+02 -0.27331619944E+02  0.96507974427E+02  0.81422351144E+02 0.  0.
        -13    1    3    3    0    0  0.61350243244E+01  0.26512978322E+02 -0.41994707093E+02  0.50041302609E+02  0.00000000000E+00 0.  1.
         14    1    3    3    0    0  0.11508889355E+03 -0.30584315896E+02 -0.18370046545E+03  0.21892170931E+03  0.00000000000E+00 0. -1.
        -13    1    5    5    0    0 -0.37815425760E+02 -0.11093209545E+02 -0.41200974751E+02  0.57013910968E+02  0.00000000000E+00 0.  1.
         14    1    5    5    0    0  0.21770134857E+02 -0.29891190575E+02  0.13869354807E+02  0.39494063458E+02  0.00000000000E+00 0. -1.
          5    1    4    4  501    0 -0.45268376201E+02 -0.61598694258E+02  0.14257028834E+03  0.16183943319E+03  0.47000000000E+01 0.  1.
         -5    1    4    4    0  501 -0.12525818094E+02 -0.10592079431E+03  0.70470562495E+03  0.71274695272E+03  0.47000000000E+01 0.  1.
          1    1    1    2  502    0 -0.16082016262E+02  0.16996818268E+03 -0.11688585709E+04  0.11812612637E+04  0.00000000000E+00 0. -1.
          1    1    1    2  503    0 -0.31302416419E+02  0.42607043579E+02  0.12654727955E+04  0.12665767239E+04  0.00000000000E+00 0. -1.
<mgrwt>
<rscale>  0 0.77648560E+02</rscale>
<asrwt>0</asrwt>
<pdfrwt beam="1">  1        2 0.32196755E+00 0.52869665E+02</pdfrwt>
<pdfrwt beam="2">  1        2 0.22037000E+00 0.11404080E+03</pdfrwt>
<totfact> 0.19794887E+01</totfact>
</mgrwt>
</event>
<event>
13    1  0.2101801E-008  0.1151744E+03  0.7546771E-02  0.1297009E+00
          2   -1    0    0  502    0  0.00000000000E+00  0.00000000000E+00  0.33851309604E+04  0.33851309604E+04  0.00000000000E+00 0. -1.
          2   -1    0    0  503    0 -0.00000000000E+00 -0.00000000000E+00 -0.58453552372E+03  0.58453552372E+03  0.00000000000E+00 0. -1.
         24    2    1    2    0    0 -0.89830156729E+02  0.14449709550E+03  0.94960726905E+01  0.18291283636E+03  0.66468508652E+02 0.  0.
         25    2    1    2    0    0  0.51859845302E+02 -0.22490828149E+03  0.76715410285E+03  0.81081676378E+03  0.12500091311E+03 0.  0.
         24    2    1    2    0    0 -0.28492849141E+02  0.10280229542E+02 -0.15225560304E+02  0.84867500997E+02  0.77801988839E+02 0.  0.
        -11    1    3    3    0    0 -0.79087117744E+02  0.12403257175E+03  0.32122960031E+02  0.15056804312E+03  0.00000000000E+00 0.  1.
         12    1    3    3    0    0 -0.10743038984E+02  0.20464523754E+02 -0.22626887340E+02  0.32344793241E+02  0.00000000000E+00 0. -1.
        -13    1    5    5    0    0 -0.37133563492E+02  0.12675332339E+02  0.23083042303E+02  0.45523537094E+02  0.00000000000E+00 0.  1.
         14    1    5    5    0    0  0.86407143514E+01 -0.23951027973E+01 -0.38308602607E+02  0.39343963903E+02  0.00000000000E+00 0. -1.
          5    1    4    4  501    0  0.78082463770E+02 -0.91571400246E+02  0.44798949459E+03  0.46389532198E+03  0.47000000000E+01 0.  1.
         -5    1    4    4    0  501 -0.26222618468E+02 -0.13333688124E+03  0.31916460826E+03  0.34692144180E+03  0.47000000000E+01 0.  1.
          1    1    1    2  502    0 -0.57199211476E+02 -0.47295779224E+02  0.24474663773E+04  0.24485914948E+04  0.00000000000E+00 0. -1.
          1    1    1    2  503    0  0.12366237204E+03  0.11742673567E+03 -0.40829555590E+03  0.44247788812E+03  0.00000000000E+00 0. -1.
<mgrwt>
<rscale>  0 0.92456843E+02</rscale>
<asrwt>0</asrwt>
<pdfrwt beam="1">  1        2 0.49781337E+00 0.74220216E+02</pdfrwt>
<pdfrwt beam="2">  1        2 0.85961108E-01 0.11517438E+03</pdfrwt>
<totfact> 0.16211420E+01</totfact>
</mgrwt>
</event>
<event>
13    1  0.2101801E-008  0.9744857E+02  0.7546771E-02  0.1316489E+00
          2   -1    0    0  503    0  0.00000000000E+00  0.00000000000E+00  0.18088863715E+04  0.18088863715E+04  0.00000000000E+00 0. -1.
          2   -1    0    0  502    0 -0.00000000000E+00 -0.00000000000E+00 -0.12115186053E+04  0.12115186053E+04  0.00000000000E+00 0. -1.
         24    2    1    2    0    0 -0.22946196399E+02 -0.15397027390E+02 -0.52725735096E+02  0.10025937412E+03  0.80674299358E+02 0.  0.
         25    2    1    2    0    0  0.12672372279E+02 -0.45713619327E+02  0.66571424688E+03  0.67900614240E+03  0.12499423549E+03 0.  0.
         24    2    1    2    0    0  0.13000863289E+03  0.37528479915E+02  0.15964372042E+03  0.21905761887E+03  0.64726281252E+02 0.  0.
        -13    1    5    5    0    0  0.35917495801E+02  0.42662938076E+02  0.59520001375E+02  0.81564841406E+02  0.00000000000E+00 0.  1.
         14    1    5    5    0    0  0.94091137094E+02 -0.51344581607E+01  0.10012371904E+03  0.13749277746E+03  0.00000000000E+00 0. -1.
        -13    1    3    3    0    0 -0.52563788366E+01  0.33153009265E+02 -0.19341663898E+02  0.38740824773E+02  0.00000000000E+00 0.  1.
         14    1    3    3    0    0 -0.17689817562E+02 -0.48550036655E+02 -0.33384071199E+02  0.61518549352E+02  0.00000000000E+00 0. -1.
          5    1    4    4  501    0  0.38917731486E+02  0.55794310498E+01  0.53020177953E+03  0.53167822683E+03  0.47000000000E+01 0. -1.
         -5    1    4    4    0  501 -0.26245359207E+02 -0.51293050377E+02  0.13551246736E+03  0.14732791557E+03  0.47000000000E+01 0. -1.
          1    1    1    2  502    0 -0.87733813952E+01 -0.72914701108E+02 -0.10915770367E+04  0.10940447673E+04  0.00000000000E+00 0. -1.
          1    1    1    2  503    0 -0.11096142738E+03  0.96496867910E+02  0.91631257067E+03  0.92803707418E+03  0.00000000000E+00 0. -1.
<mgrwt>
<rscale>  0 0.84597189E+02</rscale>
<asrwt>0</asrwt>
<pdfrwt beam="1">  1        2 0.26601270E+00 0.97448572E+02</pdfrwt>
<pdfrwt beam="2">  1        2 0.17816450E+00 0.73440628E+02</pdfrwt>
<totfact> 0.40483224E+01</totfact>
</mgrwt>
</event>
<event>
13    1  0.2779221E-008  0.4648651E+02  0.7546771E-02  0.1474938E+00
          2   -1    0    0  503    0  0.00000000000E+00  0.00000000000E+00  0.28881725454E+04  0.28881725454E+04  0.00000000000E+00 0. -1.
          2   -1    0    0  502    0 -0.00000000000E+00 -0.00000000000E+00 -0.28184020970E+04  0.28184020970E+04  0.00000000000E+00 0. -1.
         24    2    1    2    0    0  0.15015465177E+03 -0.14143011160E+04  0.37347554273E+03  0.14717944225E+04  0.62456184523E+02 0.  0.
         25    2    1    2    0    0  0.39455608859E+03  0.52296040146E+03 -0.31088014265E+03  0.73582231011E+03  0.12500368159E+03 0.  0.
         24    2    1    2    0    0 -0.47230330665E+03  0.84149091622E+03  0.17909595474E+03  0.98479303748E+03  0.81022158195E+02 0.  0.
        -11    1    3    3    0    0  0.56151454191E+02 -0.50136330680E+03  0.16332895467E+03  0.53027775613E+03  0.00000000000E+00 0.  1.
         12    1    3    3    0    0  0.94003197577E+02 -0.91293780919E+03  0.21014658806E+03  0.94151666639E+03  0.00000000000E+00 0. -1.
        -13    1    5    5    0    0 -0.27108065611E+03  0.44703889431E+03  0.13387966659E+03  0.53967792272E+03  0.00000000000E+00 0.  1.
         14    1    5    5    0    0 -0.20122265054E+03  0.39445202191E+03  0.45216288155E+02  0.44511511477E+03  0.00000000000E+00 0. -1.
          5    1    4    4  501    0  0.23302185906E+03  0.20716949853E+03 -0.13352040914E+03  0.33921700662E+03  0.47000000000E+01 0.  1.
         -5    1    4    4    0  501  0.16153422954E+03  0.31579090293E+03 -0.17735973351E+03  0.39660530349E+03  0.47000000000E+01 0.  1.
          1    1    1    2  502    0 -0.40165069725E+02  0.16379312112E+02 -0.13422313346E+04  0.13429320424E+04  0.00000000000E+00 0. -1.
          1    1    1    2  503    0 -0.32242363985E+02  0.33470486199E+02  0.11703104283E+04  0.11712328300E+04  0.00000000000E+00 0. -1.
<mgrwt>
<rscale>  0 0.44904553E+02</rscale>
<asrwt>0</asrwt>
<pdfrwt beam="1">  1        2 0.42473126E+00 0.46486511E+02</pdfrwt>
<pdfrwt beam="2">  1        2 0.41447089E+00 0.43376430E+02</pdfrwt>
<totfact> 0.23852708E+00</totfact>
</mgrwt>
</event>
<event>
13    1  0.2101801E-008  0.8297480E+02  0.7546771E-02  0.1348666E+00
          2   -1    0    0  503    0  0.00000000000E+00  0.00000000000E+00  0.59183242119E+03  0.59183242119E+03  0.00000000000E+00 0. -1.
          2   -1    0    0  502    0 -0.00000000000E+00 -0.00000000000E+00 -0.26749742062E+04  0.26749742062E+04  0.00000000000E+00 0. -1.
         24    2    1    2    0    0  0.53646232582E+02  0.35356122493E+02 -0.42752475559E+03  0.43995476887E+03  0.81577008630E+02 0.  0.
         25    2    1    2    0    0  0.52670910175E+02  0.11171850312E+03  0.17676367824E+03  0.24925100951E+03  0.12500167630E+03 0.  0.
         24    2    1    2    0    0 -0.44922595736E+02 -0.65564915547E+02 -0.30577816088E+03  0.32600783580E+03  0.80399176463E+02 0.  0.
        -13    1    3    3    0    0 -0.21482933553E+02  0.14250412315E+02 -0.11021713778E+03  0.11319190848E+03  0.00000000000E+00 0.  1.
         14    1    3    3    0    0  0.75129166135E+02  0.21105710178E+02 -0.31730761781E+03  0.32676286039E+03  0.00000000000E+00 0. -1.
        -13    1    5    5    0    0 -0.18330050639E+02 -0.62115943771E+02 -0.28449320887E+03  0.29177177231E+03  0.00000000000E+00 0.  1.
         14    1    5    5    0    0 -0.26592545098E+02 -0.34489717764E+01 -0.21284952008E+02  0.34236063487E+02  0.00000000000E+00 0. -1.
          5    1    4    4  501    0 -0.13907654519E+02  0.93986253876E+02  0.14456305546E+03  0.17305318771E+03  0.47000000000E+01 0.  1.
         -5    1    4    4    0  501  0.66578564694E+02  0.17732249243E+02  0.32200622781E+02  0.76197821802E+02  0.47000000000E+01 0.  1.
          1    1    1    2  502    0  0.19310223955E+02 -0.62127542762E+02 -0.18837777958E+04  0.18849009258E+04  0.00000000000E+00 0. -1.
          1    1    1    2  503    0 -0.80704770976E+02 -0.19382167303E+02  0.35717524899E+03  0.36669208739E+03  0.00000000000E+00 0. -1.
<mgrwt>
<rscale>  0 0.73473021E+02</rscale>
<asrwt>0</asrwt>
<pdfrwt beam="1">  1        2 0.87034181E-01 0.82974801E+02</pdfrwt>
<pdfrwt beam="2">  1        2 0.39337855E+00 0.65059329E+02</pdfrwt>
<totfact> 0.39073844E+01</totfact>
</mgrwt>
</event>
<event>
13    1  0.2101801E-008  0.1628438E+03  0.7546771E-02  0.1319123E+00
          2   -1    0    0  502    0  0.00000000000E+00  0.00000000000E+00  0.57324902992E+03  0.57324902992E+03  0.00000000000E+00 0. -1.
          2   -1    0    0  503    0 -0.00000000000E+00 -0.00000000000E+00 -0.33974595630E+04  0.33974595630E+04  0.00000000000E+00 0. -1.
         24    2    1    2    0    0  0.33632560885E+02  0.14127089853E+03 -0.13716089576E+04  0.13816588902E+04  0.81126693431E+02 0.  0.
         25    2    1    2    0    0 -0.21365816652E+03  0.15653174066E+03 -0.42090131979E+03  0.51276859475E+03  0.12498685055E+03 0.  0.
         24    2    1    2    0    0  0.97295653643E+02 -0.13180484857E+03  0.38133245449E+03  0.42273502517E+03  0.80321219698E+02 0.  0.
        -11    1    3    3    0    0  0.59690603432E+02  0.11354042085E+03 -0.10496394221E+04  0.10574484913E+04  0.00000000000E+00 0.  1.
         12    1    3    3    0    0 -0.26058042547E+02  0.27730477680E+02 -0.32196953545E+03  0.32421039887E+03  0.00000000000E+00 0. -1.
        -11    1    5    5    0    0  0.97561598363E+02 -0.68646830716E+02  0.25093542324E+03  0.27784751120E+03  0.00000000000E+00 0.  1.
         12    1    5    5    0    0 -0.26594472096E+00 -0.63158017858E+02  0.13039703124E+03  0.14488751397E+03  0.00000000000E+00 0. -1.
          5    1    4    4  501    0 -0.38412626279E+02 -0.91507168985E+01 -0.19080444650E+02  0.44106902469E+02  0.47000000000E+01 0.  1.
         -5    1    4    4    0  501 -0.17524554024E+03  0.16568245755E+03 -0.40182087514E+03  0.46866169228E+03  0.47000000000E+01 0.  1.
          1    1    1    2  502    0 -0.18549302366E+02 -0.38707659019E+02  0.11195822172E+03  0.11990414045E+03  0.00000000000E+00 0. -1.
          1    1    1    2  503    0  0.10127925435E+03 -0.12729013159E+03 -0.15249909319E+04  0.15336419424E+04  0.00000000000E+00 0. -1.
<mgrwt>
<rscale>  0 0.83604409E+02</rscale>
<asrwt>0</asrwt>
<pdfrwt beam="1">  1        2 0.84301326E-01 0.42922715E+02</pdfrwt>
<pdfrwt beam="2">  1        2 0.49962642E+00 0.16284378E+03</pdfrwt>
<totfact> 0.14481591E+01</totfact>
</mgrwt>
</event>
<event>
13    1  0.2101801E-008  0.1338881E+03  0.7546771E-02  0.1412554E+00
          2   -1    0    0  503    0  0.00000000000E+00  0.00000000000E+00  0.24379759159E+04  0.24379759159E+04  0.00000000000E+00 0. -1.
          2   -1    0    0  502    0 -0.00000000000E+00 -0.00000000000E+00 -0.63198256798E+03  0.63198256798E+03  0.00000000000E+00 0. -1.
         24    2    1    2    0    0  0.20567966062E+03 -0.29320897613E+02 -0.25045559227E+03  0.33521034592E+03  0.80462006467E+02 0.  0.
         25    2    1    2    0    0 -0.38350619858E+03 -0.11092585375E+02  0.94217947936E+03  0.10249524234E+04  0.12500099672E+03 0.  0.
         24    2    1    2    0    0  0.10733436097E+03 -0.71407333752E+02  0.33020041659E+03  0.36374875804E+03  0.81616000294E+02 0.  0.
        -11    1    3    3    0    0  0.81839951617E+02  0.52747312703E+01 -0.15398866144E+03  0.17446520662E+03  0.00000000000E+00 0.  1.
         12    1    3    3    0    0  0.12383970901E+03 -0.34595628884E+02 -0.96466930829E+02  0.16074513930E+03  0.00000000000E+00 0. -1.
        -13    1    5    5    0    0  0.10449944054E+03 -0.84873888819E+02  0.26643454643E+03  0.29851478625E+03  0.00000000000E+00 0.  1.
         14    1    5    5    0    0  0.28349204292E+01  0.13466555067E+02  0.63765870155E+02  0.65233971792E+02  0.00000000000E+00 0. -1.
          5    1    4    4  501    0 -0.20022165251E+03 -0.64746310445E+02  0.44278695591E+03  0.49026847051E+03  0.47000000000E+01 0. -1.
         -5    1    4    4    0  501 -0.18328454607E+03  0.53653725070E+02  0.49939252345E+03  0.53468395293E+03  0.47000000000E+01 0. -1.
          1    1    1    2  502    0  0.50015004606E+02  0.12424324598E+03 -0.26488489140E+03  0.29681962629E+03  0.00000000000E+00 0. -1.
          1    1    1    2  503    0  0.20477172381E+02 -0.12422429242E+02  0.10489539356E+04  0.10492273302E+04  0.00000000000E+00 0. -1.
<mgrwt>
<rscale>  0 0.56627736E+02</rscale>
<asrwt>0</asrwt>
<pdfrwt beam="1">  1        2 0.35852587E+00 0.23950602E+02</pdfrwt>
<pdfrwt beam="2">  1        2 0.92938614E-01 0.13388809E+03</pdfrwt>
<totfact> 0.54185657E+01</totfact>
</mgrwt>
</event>
<event>
13    1  0.2101801E-008  0.1884298E+03  0.7546771E-02  0.1222520E+00
         -1   -1    0    0    0  501 -0.00000000000E+00  0.00000000000E+00  0.15390732257E+04  0.15390732257E+04  0.00000000000E+00 0.  1.
          2   -1    0    0  503    0  0.00000000000E+00 -0.00000000000E+00 -0.30887446884E+04  0.30887446884E+04  0.00000000000E+00 0. -1.
         24    2    1    2    0    0  0.11462617019E+03  0.45074248877E+02  0.45602465698E+03  0.47876038959E+03  0.77988307178E+02 0.  0.
         25    2    1    2    0    0 -0.28238840415E+03  0.80084566584E+01 -0.12694414985E+04  0.13064895139E+04  0.12500314263E+03 0.  0.
         24    2    1    2    0    0 -0.34230018845E+02  0.11712868490E+03 -0.11650253267E+03  0.18650045581E+03  0.79490608760E+02 0.  0.
        -11    1    5    5    0    0  0.24282892798E+02  0.26821010363E+02 -0.17140466016E+02  0.40035247655E+02  0.00000000000E+00 0.  1.
         12    1    5    5    0    0 -0.58512911644E+02  0.90307674541E+02 -0.99362066651E+02  0.14646520815E+03  0.00000000000E+00 0. -1.
        -11    1    3    3    0    0  0.22063246154E+02 -0.10959965158E+02  0.28109235130E+02  0.37376955021E+02  0.00000000000E+00 0.  1.
         12    1    3    3    0    0  0.92562924038E+02  0.56034214035E+02  0.42791542185E+03  0.44138343457E+03  0.00000000000E+00 0. -1.
          5    1    4    4  502    0 -0.17904609768E+03 -0.52410419209E+02 -0.68986149280E+03  0.71465748886E+03  0.47000000000E+01 0. -1.
         -5    1    4    4    0  502 -0.10334230647E+03  0.60418875868E+02 -0.57958000568E+03  0.59183202503E+03  0.47000000000E+01 0. -1.
          1    1    1    2  503    0  0.83278880188E+02 -0.44489597488E+02 -0.16291917315E+04  0.16319253642E+04  0.00000000000E+00 0. -1.
         -2    1    1    2    0  501  0.11871337262E+03 -0.12572179295E+03  0.10094396430E+04  0.10241421907E+04  0.00000000000E+00 0.  1.
<mgrwt>
<rscale>  0 0.13338330E+03</rscale>
<asrwt>0</asrwt>
<pdfrwt beam="2">  1        2 0.45422715E+00 0.94417669E+02</pdfrwt>
<pdfrwt beam="1">  1       -1 0.22633430E+00 0.18842983E+03</pdfrwt>
<totfact> 0.35113099E-01</totfact>
</mgrwt>
</event>
<event>
13    1  0.2101801E-008  0.1464022E+03  0.7546771E-02  0.1241070E+00
          2   -1    0    0  503    0  0.00000000000E+00  0.00000000000E+00  0.21797908027E+04  0.21797908027E+04  0.00000000000E+00 0. -1.
          2   -1    0    0  502    0 -0.00000000000E+00 -0.00000000000E+00 -0.14515624066E+04  0.14515624066E+04  0.00000000000E+00 0. -1.
         24    2    1    2    0    0  0.85335933966E+02  0.31945222011E+01 -0.71549987746E+02  0.13781736668E+03  0.81128288620E+02 0.  0.
         25    2    1    2    0    0 -0.41502339637E+02  0.25694512905E+03  0.68989229668E+03  0.74787736518E+03  0.12500371510E+03 0.  0.
         24    2    1    2    0    0  0.39470350280E+02 -0.62421570441E+02 -0.12394080970E+03  0.16604525252E+03  0.82190878856E+02 0.  0.
        -11    1    5    5    0    0  0.34446552927E+02  0.81319570993E+01 -0.21027464418E+02  0.41168531607E+02  0.00000000000E+00 0.  1.
         12    1    5    5    0    0  0.50237973533E+01 -0.70553527541E+02 -0.10291334529E+03  0.12487672091E+03  0.00000000000E+00 0. -1.
        -11    1    3    3    0    0 -0.25396953321E-01 -0.25678474840E+02 -0.27117315907E+02  0.37346131488E+02  0.00000000000E+00 0.  1.
         12    1    3    3    0    0  0.85361330920E+02  0.28872997041E+02 -0.44432671839E+02  0.10047123519E+03  0.00000000000E+00 0. -1.
          5    1    4    4  501    0 -0.61807510173E+02  0.18408331293E+03  0.59806295670E+03  0.62881493667E+03  0.47000000000E+01 0. -1.
         -5    1    4    4    0  501  0.20305170536E+02  0.72861816125E+02  0.91829339985E+02  0.11906242851E+03  0.47000000000E+01 0. -1.
          1    1    1    2  502    0 -0.13030727068E+03 -0.10900309845E+03 -0.11649326821E+04  0.11772552034E+04  0.00000000000E+00 0. -1.
          1    1    1    2  503    0  0.47003326075E+02 -0.88714982358E+02  0.13987595789E+04  0.14023580215E+04  0.00000000000E+00 0. -1.
<mgrwt>
<rscale>  0 0.12123705E+03</rscale>
<asrwt>0</asrwt>
<pdfrwt beam="1">  1        2 0.32055747E+00 0.10039751E+03</pdfrwt>
<pdfrwt beam="2">  1        2 0.21346506E+00 0.14640225E+03</pdfrwt>
<totfact> 0.19229289E+01</totfact>
</mgrwt>
</event>
<event>
13    1  0.2101801E-008  0.3977600E+03  0.7546771E-02  0.1154308E+00
          2   -1    0    0  503    0  0.00000000000E+00  0.00000000000E+00  0.24761863560E+04  0.24761863560E+04  0.00000000000E+00 0. -1.
          2   -1    0    0  502    0 -0.00000000000E+00 -0.00000000000E+00 -0.14383367427E+04  0.14383367427E+04  0.00000000000E+00 0. -1.
         24    2    1    2    0    0  0.20649862162E+03 -0.21533998069E+03 -0.19864320566E+03  0.36702890770E+03  0.78981693538E+02 0.  0.
         25    2    1    2    0    0 -0.23966766760E+03 -0.20152308487E+03  0.88303611562E+03  0.94521425396E+03  0.12500023910E+03 0.  0.
         24    2    1    2    0    0 -0.73708948502E+02 -0.12625750756E+03  0.10367979219E+03  0.19849485961E+03  0.85303825700E+02 0.  0.
        -13    1    3    3    0    0  0.15613799241E+03 -0.10840334852E+03 -0.11397628071E+03  0.22163246876E+03  0.00000000000E+00 0.  1.
         14    1    3    3    0    0  0.50360629210E+02 -0.10693663217E+03 -0.84666924957E+02  0.14539643894E+03  0.00000000000E+00 0. -1.
        -13    1    5    5    0    0 -0.24902873689E+02 -0.10403611084E+03  0.97089629030E+02  0.14446474152E+03  0.00000000000E+00 0.  1.
         14    1    5    5    0    0 -0.48806074813E+02 -0.22221396723E+02  0.65901631614E+01  0.54030118096E+02  0.00000000000E+00 0. -1.
          5    1    4    4  501    0 -0.16542933644E+03 -0.61771829984E+02  0.51914571851E+03  0.54837668749E+03  0.47000000000E+01 0.  1.
         -5    1    4    4    0  501 -0.74238331159E+02 -0.13975125488E+03  0.36389039711E+03  0.39683756647E+03  0.47000000000E+01 0.  1.
          1    1    1    2  502    0  0.11089950971E+03  0.63831856067E+03 -0.97755575257E+03  0.11727593681E+04  0.00000000000E+00 0. -1.
          1    1    1    2  503    0 -0.40215152314E+01 -0.95197987550E+02  0.12273326637E+04  0.12310257092E+04  0.00000000000E+00 0. -1.
<mgrwt>
<rscale>  0 0.19467852E+03</rscale>
<asrwt>0</asrwt>
<pdfrwt beam="1">  1        2 0.36414505E+00 0.95282892E+02</pdfrwt>
<pdfrwt beam="2">  1        2 0.21152011E+00 0.39776003E+03</pdfrwt>
<totfact> 0.13145152E+01</totfact>
</mgrwt>
</event>
<event>
13    1  0.2101801E-008  0.1939699E+03  0.7546771E-02  0.1263063E+00
          4   -1    0    0  503    0 -0.00000000000E+00  0.00000000000E+00  0.15725268130E+04  0.15725268130E+04  0.00000000000E+00 0. -1.
          2   -1    0    0  502    0  0.00000000000E+00 -0.00000000000E+00 -0.29650796467E+04  0.29650796467E+04  0.00000000000E+00 0. -1.
         24    2    1    2    0    0  0.89199955205E+02  0.40892007887E+02 -0.22691784742E+01  0.12721270807E+03  0.80926729862E+02 0.  0.
         25    2    1    2    0    0  0.20384660410E+03 -0.26348675655E+03 -0.16551108985E+04  0.16929244540E+04  0.12498964593E+03 0.  0.
         24    2    1    2    0    0  0.52940535117E+02  0.52462238635E+02  0.54835438386E+01  0.11006601617E+03  0.80805147864E+02 0.  0.
        -11    1    5    5    0    0  0.10289847911E+01 -0.19104082061E+02 -0.78032914164E+01  0.20661948553E+02  0.00000000000E+00 0.  1.
         12    1    5    5    0    0  0.51911550326E+02  0.71566320696E+02  0.13286835255E+02  0.89404067616E+02  0.00000000000E+00 0. -1.
        -11    1    3    3    0    0  0.13660887829E+02 -0.42198281510E+01 -0.31423985625E+02  0.34523813209E+02  0.00000000000E+00 0.  1.
         12    1    3    3    0    0  0.75539067376E+02  0.45111836038E+02  0.29154807151E+02  0.92688894862E+02  0.00000000000E+00 0. -1.
          5    1    4    4  501    0  0.15862237755E+03 -0.10364064969E+03 -0.86329452604E+03  0.88385630711E+03  0.47000000000E+01 0. -1.
         -5    1    4    4    0  501  0.45224226551E+02 -0.15984610687E+03 -0.79181637248E+03  0.80906814687E+03  0.47000000000E+01 0. -1.
          1    1    1    2  502    0 -0.53953865637E+02 -0.28192261198E+02 -0.11514788137E+04  0.11530868491E+04  0.00000000000E+00 0. -1.
          3    1    1    2  503    0 -0.29203322878E+03  0.19832477123E+03  0.14108225132E+04  0.14543164323E+04  0.00000000000E+00 0. -1.
<mgrwt>
<rscale>  0 0.10866467E+03</rscale>
<asrwt>0</asrwt>
<pdfrwt beam="2">  1        2 0.43604112E+00 0.60875473E+02</pdfrwt>
<pdfrwt beam="1">  1        4 0.23125394E+00 0.19396991E+03</pdfrwt>
<totfact> 0.16039789E-01</totfact>
</mgrwt>
</event>
<event>
13    1  0.2101801E-008  0.5208082E+02  0.7546771E-02  0.1435212E+00
          2   -1    0    0  502    0  0.00000000000E+00  0.00000000000E+00  0.30982483686E+04  0.30982483686E+04  0.00000000000E+00 0. -1.
          2   -1    0    0  503    0 -0.00000000000E+00 -0.00000000000E+00 -0.48171207195E+03  0.48171207195E+03  0.00000000000E+00 0. -1.
         24    2    1    2    0    0  0.47014306769E+02  0.14656457137E+02 -0.31181150987E+03  0.32580710342E+03  0.80614478715E+02 0.  0.
         25    2    1    2    0    0 -0.14358140534E+02 -0.16675160035E+02  0.10037557003E+04  0.10117482145E+04  0.12499890564E+03 0.  0.
         24    2    1    2    0    0 -0.30515832156E+02  0.28988817808E+01  0.75296976094E+01  0.86277380808E+02  0.80296142904E+02 0.  0.
        -11    1    5    5    0    0 -0.46536932457E+02 -0.25529924649E+02  0.77610700978E+01  0.53644173441E+02  0.00000000000E+00 0.  1.
         12    1    5    5    0    0  0.16021100301E+02  0.28428806429E+02 -0.23137248841E+00  0.32633207367E+02  0.00000000000E+00 0. -1.
        -13    1    3    3    0    0  0.97014281187E+01  0.39721215950E+02 -0.21776677034E+03  0.22157224322E+03  0.00000000000E+00 0.  1.
         14    1    3    3    0    0  0.37312878651E+02 -0.25064758813E+02 -0.94044739529E+02  0.10423486020E+03  0.00000000000E+00 0. -1.
          5    1    4    4  501    0  0.51467558754E+02  0.64474587973E+01  0.29606140790E+03  0.30060759567E+03  0.47000000000E+01 0.  1.
         -5    1    4    4    0  501 -0.65825699287E+02 -0.23122618832E+02  0.70769429245E+03  0.71114061883E+03  0.47000000000E+01 0.  1.
          1    1    1    2  502    0  0.30242789832E+02 -0.42024382636E+02  0.20305153932E+04  0.20311753831E+04  0.00000000000E+00 0. -1.
          1    1    1    2  503    0 -0.32383123912E+02  0.41144203753E+02 -0.11345298464E+03  0.12495235868E+03  0.00000000000E+00 0. -1.
<mgrwt>
<rscale>  0 0.51927802E+02</rscale>
<asrwt>0</asrwt>
<pdfrwt beam="1">  1        2 0.45562475E+00 0.51775236E+02</pdfrwt>
<pdfrwt beam="2">  1        2 0.70840012E-01 0.52080818E+02</pdfrwt>
<totfact> 0.30876459E+01</totfact>
</mgrwt>
</event>
<event>
13    1  0.2101801E-008  0.1454876E+03  0.7546771E-02  0.1267032E+00
          2   -1    0    0  503    0  0.00000000000E+00  0.00000000000E+00  0.22135459792E+04  0.22135459792E+04  0.00000000000E+00 0. -1.
          2   -1    0    0  502    0 -0.00000000000E+00 -0.00000000000E+00 -0.19993968310E+04  0.19993968310E+04  0.00000000000E+00 0. -1.
         24    2    1    2    0    0  0.68458002244E+02 -0.12094331367E+02 -0.74155744565E+02  0.12910654773E+03  0.79603111070E+02 0.  0.
         25    2    1    2    0    0 -0.73168147009E+02  0.95886717260E+02  0.11567336609E+03  0.20869700511E+03  0.12500508804E+03 0.  0.
         24    2    1    2    0    0 -0.14072772108E+02 -0.44304795088E+02  0.40439979343E+03  0.41450475338E+03  0.78192326109E+02 0.  0.
        -13    1    5    5    0    0  0.22034293008E+02 -0.48136155965E+02  0.27787580417E+03  0.28287375651E+03  0.00000000000E+00 0.  1.
         14    1    5    5    0    0 -0.36107065116E+02  0.38313608766E+01  0.12652398927E+03  0.13163099687E+03  0.00000000000E+00 0. -1.
        -13    1    3    3    0    0  0.21071075725E+02 -0.43439278165E+02 -0.40887851458E+02  0.63267507590E+02  0.00000000000E+00 0.  1.
         14    1    3    3    0    0  0.47386926519E+02  0.31344946798E+02 -0.33267893106E+02  0.65839040139E+02  0.00000000000E+00 0. -1.
          5    1    4    4  501    0 -0.94629084179E+02  0.29041314422E+02  0.89787382954E+02  0.13372331754E+03  0.47000000000E+01 0. -1.
         -5    1    4    4    0  501  0.21460937169E+02  0.66845402839E+02  0.25885983136E+02  0.74973687570E+02  0.47000000000E+01 0. -1.
          1    1    1    2  502    0  0.16243806546E+02 -0.14533030986E+03 -0.18415639866E+04  0.18473610034E+04  0.00000000000E+00 0. -1.
          1    1    1    2  503    0  0.25391103274E+01  0.10584271905E+03  0.16097957198E+04  0.16132735006E+04  0.00000000000E+00 0. -1.
<mgrwt>
<rscale>  0 0.10658302E+03</rscale>
<asrwt>0</asrwt>
<pdfrwt beam="1">  1        2 0.32552147E+00 0.78081823E+02</pdfrwt>
<pdfrwt beam="2">  1        2 0.29402895E+00 0.14548764E+03</pdfrwt>
<totfact> 0.10221688E+01</totfact>
</mgrwt>
</event>
<event>
13    1  0.2101801E-008  0.5501069E+02  0.7546771E-02  0.1483415E+00
          2   -1    0    0  503    0  0.00000000000E+00  0.00000000000E+00  0.28514609037E+04  0.28514609037E+04  0.00000000000E+00 0. -1.
          2   -1    0    0  502    0 -0.00000000000E+00 -0.00000000000E+00 -0.14466014838E+04  0.14466014838E+04  0.00000000000E+00 0. -1.
         24    2    1    2    0    0 -0.15493715217E+03  0.18263021244E+03 -0.56188503997E+03  0.61682990896E+03  0.86052442310E+02 0.  0.
         25    2    1    2    0    0 -0.72525206538E+01 -0.26215097114E+03  0.64778072719E+03  0.70993864148E+03  0.12496908989E+03 0.  0.
         24    2    1    2    0    0  0.13537854291E+03  0.62837291321E+02 -0.62980827926E+03  0.65215136012E+03  0.79793814417E+02 0.  0.
        -13    1    3    3    0    0 -0.10113156873E+01  0.53148946647E+02 -0.10808591933E+03  0.12045081671E+03  0.00000000000E+00 0.  1.
         14    1    3    3    0    0 -0.15392583648E+03  0.12948126580E+03 -0.45379912064E+03  0.49637909225E+03  0.00000000000E+00 0. -1.
        -13    1    5    5    0    0  0.11027045456E+02 -0.15079739717E+02 -0.36981847172E+02  0.41432490894E+02  0.00000000000E+00 0.  1.
         14    1    5    5    0    0  0.12435149745E+03  0.77917031038E+02 -0.59282643209E+03  0.61071886923E+03  0.00000000000E+00 0. -1.
          5    1    4    4  501    0  0.14751930454E+01  0.97860494869E+01  0.52254084076E+01  0.12138280443E+02  0.47000000000E+01 0. -1.
         -5    1    4    4    0  501 -0.87277136992E+01 -0.27193702063E+03  0.64255531878E+03  0.69780036104E+03  0.47000000000E+01 0. -1.
          1    1    1    2  502    0  0.21538032709E+02  0.50800731194E+02 -0.18093202268E+03  0.18915865820E+03  0.00000000000E+00 0. -1.
          1    1    1    2  503    0  0.52730972001E+01 -0.34117263819E+02  0.21297040346E+04  0.21299838187E+04  0.00000000000E+00 0. -1.
<mgrwt>
<rscale>  0 0.43578650E+02</rscale>
<asrwt>0</asrwt>
<pdfrwt beam="1">  1        2 0.41933249E+00 0.34522359E+02</pdfrwt>
<pdfrwt beam="2">  1        2 0.21273551E+00 0.55010689E+02</pdfrwt>
<totfact> 0.11375219E+01</totfact>
</mgrwt>
</event>
<event>
13    1  0.2101801E-008  0.1296800E+03  0.7546771E-02  0.1289136E+00
          2   -1    0    0  502    0  0.00000000000E+00  0.00000000000E+00  0.24567613861E+04  0.24567613861E+04  0.00000000000E+00 0. -1.
          2   -1    0    0  503    0 -0.00000000000E+00 -0.00000000000E+00 -0.16607945534E+03  0.16607945534E+03  0.00000000000E+00 0. -1.
         24    2    1    2    0    0 -0.21665851726E+02 -0.57320270156E+02 -0.67460860139E+02  0.12236345291E+03  0.81650624346E+02 0.  0.
         25    2    1    2    0    0  0.20312226702E+02 -0.11896988957E+03  0.43309023339E+03  0.46664586800E+03  0.12499917874E+03 0.  0.
         24    2    1    2    0    0 -0.62523574935E+02  0.10140426461E+02  0.65784143631E+02  0.12167894835E+03  0.80412606275E+02 0.  0.
        -11    1    5    5    0    0 -0.79821242517E+01 -0.31941800939E+02  0.27295393754E+02  0.42767177543E+02  0.00000000000E+00 0.  1.
         12    1    5    5    0    0 -0.54541450683E+02  0.42082227400E+02  0.38488749877E+02  0.78911770812E+02  0.00000000000E+00 0. -1.
        -13    1    3    3    0    0  0.82802515256E+01  0.18263391104E+02 -0.77771643159E+01  0.21508098585E+02  0.00000000000E+00 0.  1.
         14    1    3    3    0    0 -0.29946103251E+02 -0.75583661260E+02 -0.59683695823E+02  0.10085535433E+03  0.00000000000E+00 0. -1.
          5    1    4    4  501    0  0.65694264505E+02 -0.27620079514E+02  0.19008875035E+03  0.20306262135E+03  0.47000000000E+01 0.  1.
         -5    1    4    4    0  501 -0.45382037803E+02 -0.91349810060E+02  0.24300148305E+03  0.26358324665E+03  0.47000000000E+01 0.  1.
          1    1    1    2  502    0  0.92879234254E+02  0.10141294636E+03  0.18304135219E+04  0.18355720631E+04  0.00000000000E+00 0. -1.
          1    1    1    2  503    0 -0.29002034295E+02  0.64736786905E+02  0.28854891983E+02  0.76580509030E+02  0.00000000000E+00 0. -1.
<mgrwt>
<rscale>  0 0.95911564E+02</rscale>
<asrwt>0</asrwt>
<pdfrwt beam="1">  1        2 0.36128842E+00 0.12967998E+03</pdfrwt>
<pdfrwt beam="2">  1        2 0.24423451E-01 0.70936377E+02</pdfrwt>
<totfact> 0.17488871E+02</totfact>
</mgrwt>
</event>
<event>
13    1  0.2101801E-008  0.1325514E+03  0.7546771E-02  0.1358289E+00
          2   -1    0    0  503    0  0.00000000000E+00  0.00000000000E+00  0.66440244440E+03  0.66440244440E+03  0.00000000000E+00 0. -1.
         -3   -1    0    0    0  501 -0.00000000000E+00 -0.00000000000E+00 -0.56860871096E+03  0.56860871096E+03  0.00000000000E+00 0.  1.
         24    2    1    2    0    0  0.13048456101E+03 -0.19886714023E+02 -0.16686181071E+03  0.22724533766E+03  0.79849092399E+02 0.  0.
         25    2    1    2    0    0 -0.38972207865E+02 -0.11479096179E+03 -0.41768291439E+02  0.17907782845E+03  0.12501392153E+03 0.  0.
         24    2    1    2    0    0  0.27418583990E+02 -0.15769932434E+02  0.93698819176E+02  0.12765518966E+03  0.80721181949E+02 0.  0.
        -11    1    5    5    0    0 -0.23332508591E+02  0.75939138942E+01  0.53399088036E+02  0.58766794097E+02  0.00000000000E+00 0.  1.
         12    1    5    5    0    0  0.50751092581E+02 -0.23363846328E+02  0.40299731140E+02  0.68888395564E+02  0.00000000000E+00 0. -1.
        -11    1    3    3    0    0  0.13717514129E+02 -0.33696844258E+02 -0.33561939110E+02  0.49497992521E+02  0.00000000000E+00 0.  1.
         12    1    3    3    0    0  0.11676704688E+03  0.13810130235E+02 -0.13329987160E+03  0.17774734514E+03  0.00000000000E+00 0. -1.
          5    1    4    4  502    0 -0.40629814571E+02 -0.86360043911E+02  0.31270471808E+02  0.10054238620E+03  0.47000000000E+01 0.  1.
         -5    1    4    4    0  502  0.16576067056E+01 -0.28430917881E+02 -0.73038763247E+02  0.78535442242E+02  0.47000000000E+01 0.  1.
          1    1    1    2  503    0  0.38895578268E+01  0.37330106687E+02  0.42540772178E+03  0.42706017758E+03  0.00000000000E+00 0. -1.
         -4    1    1    2    0  501 -0.12282049496E+03  0.11311750156E+03 -0.21468270537E+03  0.27197262201E+03  0.00000000000E+00 0.  1.
<mgrwt>
<rscale>  0 0.70533284E+02</rscale>
<asrwt>0</asrwt>
<pdfrwt beam="1">  1        2 0.97706242E-01 0.37532193E+02</pdfrwt>
<pdfrwt beam="2">  1       -3 0.83618928E-01 0.13255138E+03</pdfrwt>
<totfact> 0.41077507E+01</totfact>
</mgrwt>
</event>
<event>
13    1  0.2101801E-008  0.7336628E+02  0.7546771E-02  0.1413950E+00
          4   -1    0    0  503    0 -0.00000000000E+00  0.00000000000E+00  0.71476162263E+03  0.71476162263E+03  0.00000000000E+00 0. -1.
          2   -1    0    0  502    0  0.00000000000E+00 -0.00000000000E+00 -0.18102114912E+04  0.18102114912E+04  0.00000000000E+00 0. -1.
         24    2    1    2    0    0 -0.11339189937E+03 -0.15578281703E+03  0.11695792749E+03  0.23887663704E+03  0.79100455107E+02 0.  0.
         25    2    1    2    0    0  0.47688256019E+02  0.15583197430E+03 -0.30666246379E+03  0.36908660995E+03  0.12500113988E+03 0.  0.
         24    2    1    2    0    0  0.39267680797E+02  0.19598102493E+02 -0.72639455141E+03  0.73222738968E+03  0.81128721803E+02 0.  0.
        -11    1    5    5    0    0  0.48318329742E+02  0.33045809848E+02 -0.68885326198E+03  0.69133602761E+03  0.00000000000E+00 0.  1.
         12    1    5    5    0    0 -0.90506489448E+01 -0.13447707355E+02 -0.37541289435E+02  0.40891362069E+02  0.00000000000E+00 0. -1.
        -11    1    3    3    0    0 -0.54015509974E+02 -0.31620263001E+02  0.75205801263E+01  0.63040268681E+02  0.00000000000E+00 0.  1.
         12    1    3    3    0    0 -0.59376389392E+02 -0.12416255403E+03  0.10943734736E+03  0.17583636836E+03  0.00000000000E+00 0. -1.
          5    1    4    4  501    0 -0.33423438814E+01 -0.21230442368E+01  0.98769537999E+01  0.11632832665E+02  0.47000000000E+01 0.  1.
         -5    1    4    4    0  501  0.51030599900E+02  0.15795501854E+03 -0.31653941759E+03  0.35745377729E+03  0.47000000000E+01 0.  1.
          1    1    1    2  502    0 -0.43024718905E+02  0.42798740801E+01 -0.67869095919E+03  0.68006680690E+03  0.00000000000E+00 0. -1.
          3    1    1    2  503    0  0.69460681455E+02 -0.23927133847E+02  0.49934017838E+03  0.50471567020E+03  0.00000000000E+00 0. -1.
<mgrwt>
<rscale>  0 0.56321779E+02</rscale>
<asrwt>0</asrwt>
<pdfrwt beam="2">  1        2 0.26620757E+00 0.43237065E+02</pdfrwt>
<pdfrwt beam="1">  1        4 0.10511201E+00 0.73366284E+02</pdfrwt>
<totfact> 0.47436614E+00</totfact>
</mgrwt>
</event>
<event>
13    1  0.2101801E-008  0.1748896E+03  0.7546771E-02  0.1233894E+00
          2   -1    0    0  503    0  0.00000000000E+00  0.00000000000E+00  0.16057347287E+04  0.16057347287E+04  0.00000000000E+00 0. -1.
          2   -1    0    0  502    0 -0.00000000000E+00 -0.00000000000E+00 -0.27923041834E+04  0.27923041834E+04  0.00000000000E+00 0. -1.
         24    2    1    2    0    0  0.73511123542E+01  0.64996109729E+02 -0.15031346720E+04  0.15067400342E+04  0.81074997440E+02 0.  0.
         25    2    1    2    0    0  0.38609761234E+03  0.13047786215E+03 -0.28361633313E+02  0.42723011040E+03  0.12500138490E+03 0.  0.
         24    2    1    2    0    0 -0.50699758287E+02 -0.16305960775E+03 -0.95040905619E+02  0.21126811475E+03  0.80265443356E+02 0.  0.
        -13    1    3    3    0    0 -0.23763158589E+01 -0.16397773765E+02 -0.11504619078E+03  0.11623321330E+03  0.00000000000E+00 0.  1.
         14    1    3    3    0    0  0.97274282132E+01  0.81393883494E+02 -0.13880884813E+04  0.13905068209E+04  0.00000000000E+00 0. -1.
        -13    1    5    5    0    0 -0.48260154675E+02 -0.13338446998E+03 -0.10850680850E+03  0.17858943656E+03  0.00000000000E+00 0.  1.
         14    1    5    5    0    0 -0.24396036124E+01 -0.29675137771E+02  0.13465902879E+02  0.32678678184E+02  0.00000000000E+00 0. -1.
          5    1    4    4  501    0  0.35109813069E+02  0.93759472342E+01 -0.41898373983E+02  0.55661217222E+02  0.47000000000E+01 0. -1.
         -5    1    4    4    0  501  0.35098779927E+03  0.12110191491E+03  0.13536740670E+02  0.37156889318E+03  0.47000000000E+01 0. -1.
          1    1    1    2  502    0 -0.28219326195E+03  0.34739256236E+02 -0.88253799013E+03  0.92720718129E+03  0.00000000000E+00 0. -1.
          1    1    1    2  503    0 -0.60555704457E+02 -0.67153620359E+02  0.13225057465E+04  0.13255934714E+04  0.00000000000E+00 0. -1.
<mgrwt>
<rscale>  0 0.12575499E+03</rscale>
<asrwt>0</asrwt>
<pdfrwt beam="1">  1        2 0.23613746E+00 0.90424566E+02</pdfrwt>
<pdfrwt beam="2">  1        2 0.41063296E+00 0.17488960E+03</pdfrwt>
<totfact> 0.76766892E+00</totfact>
</mgrwt>
</event>
<event>
13    1  0.2101801E-008  0.9339090E+02  0.7546771E-02  0.1475239E+00
          4   -1    0    0  503    0 -0.00000000000E+00  0.00000000000E+00  0.57862952973E+03  0.57862952973E+03  0.00000000000E+00 0. -1.
          2   -1    0    0  502    0  0.00000000000E+00 -0.00000000000E+00 -0.17265691267E+04  0.17265691267E+04  0.00000000000E+00 0. -1.
         24    2    1    2    0    0 -0.35614637788E+02 -0.10305386377E+03 -0.22760992027E+03  0.26570543036E+03  0.83093914653E+02 0.  0.
         25    2    1    2    0    0 -0.38820463494E+02  0.23730103935E+03  0.26269806602E+03  0.37742924532E+03  0.12499499858E+03 0.  0.
         24    2    1    2    0    0  0.15944187485E+03 -0.10807289123E+03 -0.19964627641E+03  0.28851203396E+03  0.79240752049E+02 0.  0.
        -11    1    3    3    0    0  0.13429003621E+02 -0.14391234857E+00 -0.29098088219E+01  0.13741391356E+02  0.00000000000E+00 0.  1.
         12    1    3    3    0    0 -0.49043641408E+02 -0.10290995142E+03 -0.22470011145E+03  0.25196403900E+03  0.00000000000E+00 0. -1.
        -13    1    5    5    0    0  0.21879353500E+01 -0.34667104571E+02 -0.33596782594E+02  0.48325345328E+02  0.00000000000E+00 0.  1.
         14    1    5    5    0    0  0.15725393950E+03 -0.73405786659E+02 -0.16604949381E+03  0.24018668863E+03  0.00000000000E+00 0. -1.
          5    1    4    4  501    0 -0.19874149570E+02  0.29925928455E+02 -0.67559505936E+01  0.36854794578E+02  0.47000000000E+01 0.  1.
         -5    1    4    4    0  501 -0.18946313924E+02  0.20737511089E+03  0.26945401661E+03  0.34057445074E+03  0.47000000000E+01 0.  1.
          1    1    1    2  502    0 -0.93214252035E+02 -0.62537715177E+01 -0.11760136451E+04  0.11797186529E+04  0.00000000000E+00 0. -1.
          3    1    1    2  503    0  0.82074784714E+01 -0.19920512826E+02  0.19263217879E+03  0.19383329394E+03  0.00000000000E+00 0. -1.
<mgrwt>
<rscale>  0 0.44856575E+02</rscale>
<asrwt>0</asrwt>
<pdfrwt beam="2">  1        2 0.25390722E+00 0.93390899E+02</pdfrwt>
<pdfrwt beam="1">  1        4 0.85092579E-01 0.21545058E+02</pdfrwt>
<totfact> 0.68943721E+00</totfact>
</mgrwt>
</event>
<event>
13    1  0.2101801E-008  0.2681082E+03  0.7546771E-02  0.1258444E+00
          2   -1    0    0  503    0  0.00000000000E+00  0.00000000000E+00  0.24604425247E+04  0.24604425247E+04  0.00000000000E+00 0. -1.
          2   -1    0    0  502    0 -0.00000000000E+00 -0.00000000000E+00 -0.39552538751E+04  0.39552538751E+04  0.00000000000E+00 0. -1.
         24    2    1    2    0    0 -0.25142104840E+03 -0.49251200995E+03 -0.65509801012E+03  0.86244239097E+03  0.94195813880E+02 0.  0.
         25    2    1    2    0    0 -0.65165236499E+01  0.92527757727E+03  0.32350374188E+03  0.98815984516E+03  0.12499659395E+03 0.  0.
         24    2    1    2    0    0  0.35049834023E+03 -0.16631269623E+03  0.68774271384E+03  0.79420238501E+03  0.85196176486E+02 0.  0.
        -11    1    5    5    0    0  0.12288021472E+03 -0.74817140219E+02  0.33455063699E+03  0.36417204774E+03  0.00000000000E+00 0.  1.
         12    1    5    5    0    0  0.22761812551E+03 -0.91495556008E+02  0.35319207685E+03  0.43003033727E+03  0.00000000000E+00 0. -1.
        -13    1    3    3    0    0 -0.10034258509E+03 -0.26094150340E+03 -0.38605649236E+03  0.47665366659E+03  0.00000000000E+00 0.  1.
         14    1    3    3    0    0 -0.15107846331E+03 -0.23157050655E+03 -0.26904151776E+03  0.38578872438E+03  0.00000000000E+00 0. -1.
          5    1    4    4  501    0  0.47522892436E+02  0.50743324829E+03  0.21424369184E+03  0.55287374351E+03  0.47000000000E+01 0.  1.
         -5    1    4    4    0  501 -0.54039416086E+02  0.41784432899E+03  0.10926005005E+03  0.43528610165E+03  0.47000000000E+01 0.  1.
          1    1    1    2  502    0 -0.12714396779E+03 -0.23599306226E+03 -0.28039767387E+04  0.28167612368E+04  0.00000000000E+00 0. -1.
          1    1    1    2  503    0  0.34583199603E+02 -0.30459808833E+02  0.95301694279E+03  0.95413054185E+03  0.00000000000E+00 0. -1.
<mgrwt>
<rscale>  0 0.11115612E+03</rscale>
<asrwt>0</asrwt>
<pdfrwt beam="1">  1        2 0.36182979E+00 0.46084679E+02</pdfrwt>
<pdfrwt beam="2">  1        2 0.58165498E+00 0.26810825E+03</pdfrwt>
<totfact> 0.61869799E-01</totfact>
</mgrwt>
</event>
<event>
13    1  0.2101801E-008  0.1034791E+03  0.7546771E-02  0.1320826E+00
          2   -1    0    0  502    0  0.00000000000E+00  0.00000000000E+00  0.10531975045E+04  0.10531975045E+04  0.00000000000E+00 0. -1.
          2   -1    0    0  503    0 -0.00000000000E+00 -0.00000000000E+00 -0.92642353005E+03  0.92642353005E+03  0.00000000000E+00 0. -1.
         24    2    1    2    0    0 -0.27251312784E+02  0.11824232907E+02 -0.83780819865E+02  0.11045271640E+03  0.65560126988E+02 0.  0.
         25    2    1    2    0    0 -0.29597875228E+02  0.11936503354E+03  0.33428864427E+03  0.37748904979E+03  0.12500015829E+03 0.  0.
         24    2    1    2    0    0  0.22154500214E+02 -0.10677220558E+02  0.31514350155E+03  0.32615685996E+03  0.80361967427E+02 0.  0.
        -11    1    5    5    0    0 -0.28407930340E+01 -0.40429604238E+02  0.21403245267E+03  0.21783597912E+03  0.00000000000E+00 0.  1.
         12    1    5    5    0    0  0.24995293248E+02  0.29752383680E+02  0.10111104888E+03  0.10832088083E+03  0.00000000000E+00 0. -1.
        -13    1    3    3    0    0 -0.24485616714E+02 -0.24351854614E+02 -0.50766267618E+02  0.61398470477E+02  0.00000000000E+00 0.  1.
         14    1    3    3    0    0 -0.27656960704E+01  0.36176087521E+02 -0.33014552247E+02  0.49054245924E+02  0.00000000000E+00 0. -1.
          5    1    4    4  501    0 -0.63158897676E+02  0.87437377851E+02  0.30229540290E+03  0.32099679440E+03  0.47000000000E+01 0.  1.
         -5    1    4    4    0  501  0.33561022448E+02  0.31927655688E+02  0.31993241370E+02  0.56492255389E+02  0.47000000000E+01 0.  1.
          1    1    1    2  502    0 -0.31497612771E+02 -0.12717710993E+03  0.35006496155E+03  0.37378014154E+03  0.00000000000E+00 0. -1.
          1    1    1    2  503    0  0.66192300569E+02  0.66650640413E+01 -0.78894231308E+03  0.79174226684E+03  0.00000000000E+00 0. -1.
<mgrwt>
<rscale>  0 0.82970800E+02</rscale>
<asrwt>0</asrwt>
<pdfrwt beam="1">  1        2 0.15488199E+00 0.10347907E+03</pdfrwt>
<pdfrwt beam="2">  1        2 0.13623875E+00 0.66527015E+02</pdfrwt>
<totfact> 0.14061612E+02</totfact>
</mgrwt>
</event>
<event>
13    1  0.2101801E-008  0.1078379E+03  0.7546771E-02  0.1448127E+00
          2   -1    0    0  502    0  0.00000000000E+00  0.00000000000E+00  0.13290443132E+04  0.13290443132E+04  0.00000000000E+00 0. -1.
          2   -1    0    0  503    0 -0.00000000000E+00 -0.00000000000E+00 -0.34637408814E+04  0.34637408814E+04  0.00000000000E+00 0. -1.
         24    2    1    2    0    0 -0.24398927381E+02  0.42011652218E+02 -0.13015700650E+04  0.13049784449E+04  0.80770173966E+02 0.  0.
         25    2    1    2    0    0  0.21915213506E+03 -0.65458840281E+02  0.10041167317E+04  0.10373918916E+04  0.12497602898E+03 0.  0.
         24    2    1    2    0    0 -0.81374815281E+02  0.28515246817E+02 -0.78014363521E+03  0.78842618239E+03  0.74543770091E+02 0.  0.
        -11    1    3    3    0    0 -0.14829585023E+02  0.62987871617E+02 -0.70515395395E+03  0.70811685995E+03  0.00000000000E+00 0.  1.
         12    1    3    3    0    0 -0.95693423574E+01 -0.20976219399E+02 -0.59641611102E+03  0.59686158494E+03  0.00000000000E+00 0. -1.
        -11    1    5    5    0    0 -0.21555409501E+02 -0.20506214486E+02 -0.35971184459E+03  0.36094009427E+03  0.00000000000E+00 0.  1.
         12    1    5    5    0    0 -0.59819405780E+02  0.49021461303E+02 -0.42043179062E+03  0.42748608812E+03  0.00000000000E+00 0. -1.
          5    1    4    4  501    0  0.11050413047E+03  0.17016333990E+02  0.30051615513E+03  0.32067548700E+03  0.47000000000E+01 0. -1.
         -5    1    4    4    0  501  0.10864800459E+03 -0.82475174270E+02  0.70360057654E+03  0.71671640456E+03  0.47000000000E+01 0. -1.
          1    1    1    2  502    0 -0.53969421702E+01  0.22059352259E+02  0.29973484773E+03  0.30059394696E+03  0.00000000000E+00 0. -1.
          1    1    1    2  503    0 -0.10798145022E+03 -0.27127411013E+02 -0.13568344474E+04  0.13613947288E+04  0.00000000000E+00 0. -1.
<mgrwt>
<rscale>  0 0.49487311E+02</rscale>
<asrwt>0</asrwt>
<pdfrwt beam="1">  1        2 0.19544769E+00 0.22709954E+02</pdfrwt>
<pdfrwt beam="2">  1        2 0.50937366E+00 0.10783791E+03</pdfrwt>
<totfact> 0.53309984E+00</totfact>
</mgrwt>
</event>
<event>
13    1  0.2101801E-008  0.6515527E+02  0.7546771E-02  0.1455601E+00
          2   -1    0    0  503    0  0.00000000000E+00  0.00000000000E+00  0.41155575238E+04  0.41155575238E+04  0.00000000000E+00 0. -1.
         -1   -1    0    0    0  501 -0.00000000000E+00 -0.00000000000E+00 -0.95916070041E+03  0.95916070041E+03  0.00000000000E+00 0.  1.
         24    2    1    2    0    0  0.37225033293E+02  0.59438227790E+02 -0.14209323732E+03  0.17655684109E+03  0.77866706724E+02 0.  0.
         25    2    1    2    0    0  0.57292914374E+00 -0.11922867359E+03  0.14406429121E+04  0.14509628579E+04  0.12500164013E+03 0.  0.
         24    2    1    2    0    0 -0.79683852684E+02  0.65366012103E+02  0.72866951008E+03  0.74041611988E+03  0.81452708675E+02 0.  0.
        -13    1    5    5    0    0 -0.96810317661E+01 -0.38078250494E+01  0.81734879871E+01  0.13229807767E+02  0.00000000000E+00 0.  1.
         14    1    5    5    0    0 -0.70002820918E+02  0.69173837152E+02  0.72049602209E+03  0.72718631212E+03  0.00000000000E+00 0. -1.
        -13    1    3    3    0    0  0.58703238464E+02  0.28230137015E+02 -0.10481628906E+03  0.12340771975E+03  0.00000000000E+00 0.  1.
         14    1    3    3    0    0 -0.21478205171E+02  0.31208090775E+02 -0.37276948266E+02  0.53149121340E+02  0.00000000000E+00 0. -1.
          5    1    4    4  502    0  0.96390634971E+01 -0.15062944401E+02  0.90505643237E+03  0.90524529252E+03  0.47000000000E+01 0.  1.
         -5    1    4    4    0  502 -0.90661343534E+01 -0.10416572919E+03  0.53558647973E+03  0.54571756541E+03  0.47000000000E+01 0.  1.
          1    1    1    2  503    0 -0.18337262295E+02 -0.30488670743E+02  0.19164684475E+04  0.19167986657E+04  0.00000000000E+00 0. -1.
         -2    1    1    2    0  501  0.60223152542E+02  0.24913104443E+02 -0.78729080904E+03  0.78998373963E+03  0.00000000000E+00 0.  1.
<mgrwt>
<rscale>  0 0.48146781E+02</rscale>
<asrwt>0</asrwt>
<pdfrwt beam="1">  1        2 0.60522904E+00 0.35578283E+02</pdfrwt>
<pdfrwt beam="2">  1       -1 0.14105305E+00 0.65155266E+02</pdfrwt>
<totfact> 0.43684374E-01</totfact>
</mgrwt>
</event>
<event>
13    1  0.2101801E-008  0.5331617E+02  0.7546771E-02  0.1470951E+00
          2   -1    0    0  503    0  0.00000000000E+00  0.00000000000E+00  0.28172531324E+04  0.28172531324E+04  0.00000000000E+00 0. -1.
          2   -1    0    0  502    0 -0.00000000000E+00 -0.00000000000E+00 -0.33383246267E+04  0.33383246267E+04  0.00000000000E+00 0. -1.
         24    2    1    2    0    0  0.86408542008E+03 -0.55996046251E+03  0.64574711674E+03  0.12192940710E+04  0.97413345723E+02 0.  0.
         25    2    1    2    0    0 -0.18026507327E+03 -0.29441810137E+02  0.35385956280E+03  0.41737771180E+03  0.12500098916E+03 0.  0.
         24    2    1    2    0    0 -0.66909391468E+03  0.58327829894E+03 -0.16549377991E+03  0.90652816733E+03  0.80652875270E+02 0.  0.
        -11    1    3    3    0    0  0.59632309194E+03 -0.43023388589E+03  0.43062647981E+03  0.85213942032E+03  0.00000000000E+00 0.  1.
         12    1    3    3    0    0  0.26776232814E+03 -0.12972657662E+03  0.21512063692E+03  0.36715465064E+03  0.00000000000E+00 0. -1.
        -13    1    5    5    0    0 -0.21234216681E+03  0.13693290615E+03 -0.46682208145E+02  0.25694171547E+03  0.00000000000E+00 0.  1.
         14    1    5    5    0    0 -0.45675174787E+03  0.44634539279E+03 -0.11881157177E+03  0.64958645186E+03  0.00000000000E+00 0. -1.
          5    1    4    4  501    0 -0.12879508953E+03 -0.54985708162E+02  0.14889262397E+03  0.20445710225E+03  0.47000000000E+01 0.  1.
         -5    1    4    4    0  501 -0.51469983739E+02  0.25543898025E+02  0.20496693884E+03  0.21292060954E+03  0.47000000000E+01 0.  1.
          1    1    1    2  502    0  0.23758881485E+02 -0.30815442797E+02 -0.24829982322E+04  0.24833031021E+04  0.00000000000E+00 0. -1.
          1    1    1    2  503    0 -0.38485313609E+02  0.36939416500E+02  0.11278138383E+04  0.11290747069E+04  0.00000000000E+00 0. -1.
<mgrwt>
<rscale>  0 0.45547694E+02</rscale>
<asrwt>0</asrwt>
<pdfrwt beam="1">  1        2 0.41430193E+00 0.53316172E+02</pdfrwt>
<pdfrwt beam="2">  1        2 0.49093009E+00 0.38911129E+02</pdfrwt>
<totfact> 0.13857708E+00</totfact>
</mgrwt>
</event>
<event>
13    1  0.2101801E-008  0.1048675E+03  0.7546771E-02  0.1295510E+00
          2   -1    0    0  503    0  0.00000000000E+00  0.00000000000E+00  0.26064770408E+04  0.26064770408E+04  0.00000000000E+00 0. -1.
          2   -1    0    0  502    0 -0.00000000000E+00 -0.00000000000E+00 -0.12757504148E+04  0.12757504148E+04  0.00000000000E+00 0. -1.
         24    2    1    2    0    0  0.10061951120E+03 -0.21231937906E+01 -0.32430255153E+02  0.13371083580E+03  0.81841750804E+02 0.  0.
         25    2    1    2    0    0  0.18142073127E+03 -0.13232988657E+03  0.19805815628E+03  0.32445930973E+03  0.12498851861E+03 0.  0.
         24    2    1    2    0    0 -0.37004835877E+03  0.16434238737E+03  0.34831735897E+02  0.41719838676E+03  0.94324100672E+02 0.  0.
        -13    1    3    3    0    0 -0.97477310447E+00 -0.18784252648E+02 -0.23889618933E+02  0.30405792588E+02  0.00000000000E+00 0.  1.
         14    1    3    3    0    0  0.10159428431E+03  0.16661058858E+02 -0.85406362197E+01  0.10330504321E+03  0.00000000000E+00 0. -1.
        -13    1    5    5    0    0 -0.28613845600E+03  0.11622073909E+03 -0.13359098744E+02  0.30912932846E+03  0.00000000000E+00 0.  1.
         14    1    5    5    0    0 -0.83909902774E+02  0.48121648282E+02  0.48190834641E+02  0.10806905829E+03  0.00000000000E+00 0. -1.
          5    1    4    4  501    0  0.39486598404E+02 -0.30845756883E+02  0.12589964443E+03  0.13558562844E+03  0.47000000000E+01 0. -1.
         -5    1    4    4    0  501  0.14193413286E+03 -0.10148412969E+03  0.72158511849E+02  0.18887368129E+03  0.47000000000E+01 0. -1.
          1    1    1    2  502    0  0.90931329059E+02  0.52714490550E+02 -0.93452305352E+03  0.94041515390E+03  0.00000000000E+00 0. -1.
          1    1    1    2  503    0 -0.29232127503E+01 -0.82603797557E+02  0.20647900425E+04  0.20664437694E+04  0.00000000000E+00 0. -1.
<mgrwt>
<rscale>  0 0.93101433E+02</rscale>
<asrwt>0</asrwt>
<pdfrwt beam="1">  1        2 0.38330545E+00 0.82655505E+02</pdfrwt>
<pdfrwt beam="2">  1        2 0.18761035E+00 0.10486751E+03</pdfrwt>
<totfact> 0.15320859E+01</totfact>
</mgrwt>
</event>
<event>
13    1  0.2101801E-008  0.1424517E+03  0.7546771E-02  0.1219110E+00
          2   -1    0    0  503    0  0.00000000000E+00  0.00000000000E+00  0.13583696985E+04  0.13583696985E+04  0.00000000000E+00 0. -1.
          2   -1    0    0  502    0 -0.00000000000E+00 -0.00000000000E+00 -0.26128072266E+04  0.26128072266E+04  0.00000000000E+00 0. -1.
         24    2    1    2    0    0 -0.47041237687E+02 -0.18137234572E+03 -0.36715712979E+03  0.41974292097E+03  0.79189367434E+02 0.  0.
         25    2    1    2    0    0  0.44453165709E+03  0.27716796149E+03 -0.29378159236E+03  0.61348120566E+03  0.12498436964E+03 0.  0.
         24    2    1    2    0    0 -0.12747170773E+03 -0.68830600684E+02 -0.23843316823E+03  0.29253015443E+03  0.87959238706E+02 0.  0.
        -11    1    3    3    0    0  0.24361109354E+01 -0.13324000192E+03 -0.22025779763E+03  0.25743412782E+03  0.00000000000E+00 0.  1.
         12    1    3    3    0    0 -0.49477348623E+02 -0.48132343805E+02 -0.14689933215E+03  0.16230879315E+03  0.00000000000E+00 0. -1.
        -13    1    5    5    0    0 -0.67723465341E+02 -0.82337830634E+02 -0.13142128994E+03  0.16922630280E+03  0.00000000000E+00 0.  1.
         14    1    5    5    0    0 -0.59748242388E+02  0.13507229949E+02 -0.10701187829E+03  0.12330385162E+03  0.00000000000E+00 0. -1.
          5    1    4    4  501    0  0.71359136631E+01 -0.11512484564E+02 -0.10102599698E+02  0.17538845039E+02  0.47000000000E+01 0.  1.
         -5    1    4    4    0  501  0.43739574342E+03  0.28868044606E+03 -0.28367899266E+03  0.59594236062E+03  0.47000000000E+01 0.  1.
          1    1    1    2  502    0 -0.12894155317E+03 -0.11329910944E+02 -0.14930349323E+04  0.14986352458E+04  0.00000000000E+00 0. -1.
          1    1    1    2  503    0 -0.14107715850E+03 -0.15635104142E+02  0.11379692946E+04  0.11467873981E+04  0.00000000000E+00 0. -1.
<mgrwt>
<rscale>  0 0.13578924E+03</rscale>
<asrwt>0</asrwt>
<pdfrwt beam="1">  1        2 0.19976025E+00 0.14245171E+03</pdfrwt>
<pdfrwt beam="2">  1        2 0.38423636E+00 0.12943837E+03</pdfrwt>
<totfact> 0.12716904E+01</totfact>
</mgrwt>
</event>
<event>
13    1  0.2101801E-008  0.1169145E+03  0.7546771E-02  0.1454021E+00
          2   -1    0    0  503    0  0.00000000000E+00  0.00000000000E+00  0.16226199510E+04  0.16226199510E+04  0.00000000000E+00 0. -1.
          2   -1    0    0  502    0 -0.00000000000E+00 -0.00000000000E+00 -0.15481785990E+04  0.15481785990E+04  0.00000000000E+00 0. -1.
         24    2    1    2    0    0  0.77740941272E+01  0.13370289870E+02 -0.32848470729E+03  0.33835584641E+03  0.79644677718E+02 0.  0.
         25    2    1    2    0    0  0.14199891128E+02 -0.16032365186E+03  0.84020157993E+03  0.86456162785E+03  0.12499121234E+03 0.  0.
         24    2    1    2    0    0 -0.24535187851E+01 -0.11790415609E+02  0.64676160278E+02  0.10339149920E+03  0.79760659123E+02 0.  0.
        -13    1    3    3    0    0  0.43426939739E+02  0.83546169058E+01 -0.20576791165E+03  0.21046646332E+03  0.00000000000E+00 0.  1.
         14    1    3    3    0    0 -0.35652845612E+02  0.50156729643E+01 -0.12271679564E+03  0.12788938309E+03  0.00000000000E+00 0. -1.
        -13    1    5    5    0    0 -0.21410390864E+02 -0.38875470129E+02  0.51019870746E+02  0.67621995132E+02  0.00000000000E+00 0.  1.
         14    1    5    5    0    0  0.18956872079E+02  0.27085054521E+02  0.13656289532E+02  0.35769504067E+02  0.00000000000E+00 0. -1.
          5    1    4    4  501    0 -0.20385005849E+02  0.10832156451E+02  0.49837652248E+02  0.55125000303E+02  0.47000000000E+01 0.  1.
         -5    1    4    4    0  501  0.34584896977E+02 -0.17115580831E+03  0.79036392769E+03  0.80943662754E+03  0.47000000000E+01 0.  1.
          1    1    1    2  502    0 -0.38636182274E+02  0.15266800192E+03 -0.11778311935E+04  0.11883124983E+04  0.00000000000E+00 0. -1.
          1    1    1    2  503    0  0.19115715803E+02  0.60757756766E+01  0.67587951252E+03  0.67617707820E+03  0.00000000000E+00 0. -1.
<mgrwt>
<rscale>  0 0.48426001E+02</rscale>
<asrwt>0</asrwt>
<pdfrwt beam="1">  1        2 0.23862058E+00 0.20058057E+02</pdfrwt>
<pdfrwt beam="2">  1        2 0.22767332E+00 0.11691450E+03</pdfrwt>
<totfact> 0.37676653E+01</totfact>
</mgrwt>
</event>
<event>
13    1  0.2101801E-008  0.1389378E+03  0.7546771E-02  0.1218648E+00
          2   -1    0    0  502    0  0.00000000000E+00  0.00000000000E+00  0.12585499621E+04  0.12585499621E+04  0.00000000000E+00 0. -1.
          2   -1    0    0  503    0 -0.00000000000E+00 -0.00000000000E+00 -0.33334994185E+04  0.33334994185E+04  0.00000000000E+00 0. -1.
         24    2    1    2    0    0  0.14527217856E+03  0.88522745896E+02 -0.77523039598E+03  0.79786992944E+03  0.81694400306E+02 0.  0.
         25    2    1    2    0    0 -0.99061051457E+02  0.14757137203E+03  0.42088752504E+02  0.22133239278E+03  0.12500465291E+03 0.  0.
         24    2    1    2    0    0 -0.66429104832E+02 -0.49997145708E+02 -0.12993940561E+03  0.16350577755E+03  0.54197321087E+02 0.  0.
        -11    1    3    3    0    0  0.44335623963E+02  0.48742820319E+02 -0.15818581061E+03  0.17136003257E+03  0.00000000000E+00 0.  1.
         12    1    3    3    0    0  0.10093655460E+03  0.39779925577E+02 -0.61704458538E+03  0.62650989687E+03  0.00000000000E+00 0. -1.
        -13    1    5    5    0    0 -0.53138767243E+01 -0.36052242028E+02 -0.43952160555E+02  0.57094604461E+02  0.00000000000E+00 0.  1.
         14    1    5    5    0    0 -0.61115228107E+02 -0.13944903680E+02 -0.85987245057E+02  0.10641117309E+03  0.00000000000E+00 0. -1.
          5    1    4    4  501    0 -0.48301025328E+00  0.17312948936E+02 -0.35989608277E+02  0.40215835236E+02  0.47000000000E+01 0.  1.
         -5    1    4    4    0  501 -0.98578041204E+02  0.13025842310E+03  0.78078360781E+02  0.18111655755E+03  0.47000000000E+01 0.  1.
          1    1    1    2  502    0 -0.12339395361E+03 -0.50311458741E+02  0.10904465893E+04  0.10985586351E+04  0.00000000000E+00 0. -1.
          1    1    1    2  503    0  0.14361193134E+03 -0.13578551348E+03 -0.23023149966E+04  0.23107826458E+04  0.00000000000E+00 0. -1.
<mgrwt>
<rscale>  0 0.13611974E+03</rscale>
<asrwt>0</asrwt>
<pdfrwt beam="1">  1        2 0.18508088E+00 0.13335888E+03</pdfrwt>
<pdfrwt beam="2">  1        2 0.49022050E+00 0.13893775E+03</pdfrwt>
<totfact> 0.58296449E+00</totfact>
</mgrwt>
</event>
<event>
13    1  0.2101801E-008  0.1103185E+03  0.7546771E-02  0.1349764E+00
          2   -1    0    0  502    0  0.00000000000E+00  0.00000000000E+00  0.22931970387E+04  0.22931970387E+04  0.00000000000E+00 0. -1.
          2   -1    0    0  503    0 -0.00000000000E+00 -0.00000000000E+00 -0.98174571321E+03  0.98174571321E+03  0.00000000000E+00 0. -1.
         24    2    1    2    0    0  0.47696730619E+02 -0.13478245577E+03 -0.18020191132E+03  0.24372839879E+03  0.80557526266E+02 0.  0.
         25    2    1    2    0    0 -0.13254336041E+03  0.11517628246E+03  0.18336363089E+03  0.28298470548E+03  0.12499921587E+03 0.  0.
         24    2    1    2    0    0 -0.39032304853E+02 -0.40200735267E+02  0.34287878650E+02  0.10242104419E+03  0.78579843048E+02 0.  0.
        -13    1    5    5    0    0 -0.44872037141E+01 -0.53656611707E+02  0.36870512930E+02  0.65257962739E+02  0.00000000000E+00 0.  1.
         14    1    5    5    0    0 -0.34545101139E+02  0.13455876440E+02 -0.25826342798E+01  0.37163081456E+02  0.00000000000E+00 0. -1.
        -13    1    3    3    0    0  0.64688746096E+02 -0.92511125456E+02 -0.15473311822E+03  0.19153401807E+03  0.00000000000E+00 0.  1.
         14    1    3    3    0    0 -0.16992015477E+02 -0.42271330312E+02 -0.25468793095E+02  0.52194380713E+02  0.00000000000E+00 0. -1.
          5    1    4    4  501    0 -0.86554415294E+02 -0.70290633533E+00  0.48770657884E+02  0.99462696297E+02  0.47000000000E+01 0.  1.
         -5    1    4    4    0  501 -0.45988945111E+02  0.11587918880E+03  0.13459297301E+03  0.18352200918E+03  0.47000000000E+01 0.  1.
          1    1    1    2  502    0  0.13972664299E+02  0.46419342129E+02  0.19551347097E+04  0.19557355966E+04  0.00000000000E+00 0. -1.
          1    1    1    2  503    0  0.10990627034E+03  0.13387566442E+02 -0.68113298239E+03  0.69007300693E+03  0.00000000000E+00 0. -1.
<mgrwt>
<rscale>  0 0.73129172E+02</rscale>
<asrwt>0</asrwt>
<pdfrwt beam="1">  1        2 0.33723486E+00 0.48476702E+02</pdfrwt>
<pdfrwt beam="2">  1        2 0.14437437E+00 0.11031847E+03</pdfrwt>
<totfact> 0.33729791E+01</totfact>
</mgrwt>
</event>
<event>
13    1  0.2101801E-008  0.5087339E+02  0.7546771E-02  0.1564089E+00
          2   -1    0    0  503    0  0.00000000000E+00  0.00000000000E+00  0.24429411509E+04  0.24429411509E+04  0.00000000000E+00 0. -1.
          2   -1    0    0  502    0 -0.00000000000E+00 -0.00000000000E+00 -0.10353210030E+04  0.10353210030E+04  0.00000000000E+00 0. -1.
         24    2    1    2    0    0  0.42085440075E+03  0.28764296841E+02 -0.11066791576E+01  0.42983052687E+03  0.82506034280E+02 0.  0.
         25    2    1    2    0    0 -0.51344738624E+02 -0.13848746138E+03  0.69575759427E+02  0.20562743317E+03  0.12500718312E+03 0.  0.
         24    2    1    2    0    0 -0.40185658680E+03  0.45335555238E+02  0.80773353070E+03  0.90713914940E+03  0.83210280856E+02 0.  0.
        -11    1    5    5    0    0 -0.30042157572E+03  0.41157111882E+01  0.54144417387E+03  0.61921874621E+03  0.00000000000E+00 0.  1.
         12    1    5    5    0    0 -0.10143501108E+03  0.41219844049E+02  0.26628935682E+03  0.28792040319E+03  0.00000000000E+00 0. -1.
        -13    1    3    3    0    0  0.21214689712E+03 -0.10883743616E+02  0.32011933655E+02  0.21482440673E+03  0.00000000000E+00 0.  1.
         14    1    3    3    0    0  0.20870750363E+03  0.39648040457E+02 -0.33118612813E+02  0.21500612014E+03  0.00000000000E+00 0. -1.
          5    1    4    4  501    0  0.26822645855E+02 -0.10073608127E+03  0.22438529439E+02  0.10673701328E+03  0.47000000000E+01 0.  1.
         -5    1    4    4    0  501 -0.78167384478E+02 -0.37751380109E+02  0.47137229988E+02  0.98890419896E+02  0.47000000000E+01 0.  1.
          1    1    1    2  502    0  0.57887130265E+01  0.21035376911E+02 -0.70143022224E+03  0.70176944430E+03  0.00000000000E+00 0. -1.
          1    1    1    2  503    0  0.26558211649E+02  0.43352232386E+02  0.12328477592E+04  0.12338956002E+04  0.00000000000E+00 0. -1.
<mgrwt>
<rscale>  0 0.33315492E+02</rscale>
<asrwt>0</asrwt>
<pdfrwt beam="1">  1        2 0.35925605E+00 0.50873391E+02</pdfrwt>
<pdfrwt beam="2">  1        2 0.15225309E+00 0.21817339E+02</pdfrwt>
<totfact> 0.28845661E+01</totfact>
</mgrwt>
</event>
<event>
13    1  0.2101801E-008  0.1328776E+03  0.7546771E-02  0.1358692E+00
          2   -1    0    0  503    0  0.00000000000E+00  0.00000000000E+00  0.17800434095E+04  0.17800434095E+04  0.00000000000E+00 0. -1.
          2   -1    0    0  502    0 -0.00000000000E+00 -0.00000000000E+00 -0.14842761525E+04  0.14842761525E+04  0.00000000000E+00 0. -1.
         24    2    1    2    0    0  0.75016751134E+01  0.21941513373E+02 -0.63330919130E+02  0.10508868104E+03  0.80592309976E+02 0.  0.
         25    2    1    2    0    0  0.13474569835E+03 -0.61163885831E+02  0.90895542520E+03  0.92936556011E+03  0.12499182034E+03 0.  0.
         24    2    1    2    0    0  0.50976708978E+02 -0.97811559192E+02  0.55491861868E+02  0.14711810400E+03  0.79991648438E+02 0.  0.
        -13    1    3    3    0    0  0.31426433081E+02  0.38251672253E+02 -0.56911355119E+02  0.75430189366E+02  0.00000000000E+00 0.  1.
         14    1    3    3    0    0 -0.23924757968E+02 -0.16310158880E+02 -0.64195640111E+01  0.29658491678E+02  0.00000000000E+00 0. -1.
        -13    1    5    5    0    0 -0.66211247628E+01  0.95219645251E+01 -0.30171123835E+01  0.11983741848E+02  0.00000000000E+00 0.  1.
         14    1    5    5    0    0  0.57597833740E+02 -0.10733352372E+03  0.58508974252E+02  0.13513436215E+03  0.00000000000E+00 0. -1.
          5    1    4    4  501    0  0.45171727529E+02  0.37837219375E+02  0.32411177663E+03  0.32945815195E+03  0.47000000000E+01 0. -1.
         -5    1    4    4    0  501  0.89573970818E+02 -0.99001105206E+02  0.58484364857E+03  0.59990740815E+03  0.47000000000E+01 0. -1.
          1    1    1    2  502    0 -0.15645191612E+03  0.13070243931E+03 -0.13358388069E+04  0.13513051645E+04  0.00000000000E+00 0. -1.
          1    1    1    2  503    0 -0.36772166320E+02  0.63314923356E+01  0.73048969595E+03  0.73144205232E+03  0.00000000000E+00 0. -1.
<mgrwt>
<rscale>  0 0.70413766E+02</rscale>
<asrwt>0</asrwt>
<pdfrwt beam="1">  1        2 0.26177109E+00 0.37313269E+02</pdfrwt>
<pdfrwt beam="2">  1        2 0.21827590E+00 0.13287762E+03</pdfrwt>
<totfact> 0.32003469E+01</totfact>
</mgrwt>
</event>
<event>
13    1  0.2101801E-008  0.9393575E+02  0.7546771E-02  0.1324114E+00
          2   -1    0    0  502    0  0.00000000000E+00  0.00000000000E+00  0.23619872608E+04  0.23619872608E+04  0.00000000000E+00 0. -1.
          2   -1    0    0  503    0 -0.00000000000E+00 -0.00000000000E+00 -0.15295387410E+04  0.15295387410E+04  0.00000000000E+00 0. -1.
         24    2    1    2    0    0  0.60606914761E+02 -0.52352556550E+02 -0.76144053070E+03  0.76998076419E+03  0.81637657619E+02 0.  0.
         25    2    1    2    0    0  0.17832136962E+03  0.13885837045E+03  0.10514835984E+03  0.27885543813E+03  0.12499607950E+03 0.  0.
         24    2    1    2    0    0 -0.39553040841E+02 -0.14636483644E+03  0.56989908452E+03  0.59496296218E+03  0.78796265407E+02 0.  0.
        -11    1    5    5    0    0 -0.80248263924E+01 -0.47823148353E+02  0.74615505596E+02  0.88988342115E+02  0.00000000000E+00 0.  1.
         12    1    5    5    0    0 -0.31528214448E+02 -0.98541688090E+02  0.49528357892E+03  0.50597462006E+03  0.00000000000E+00 0. -1.
        -13    1    3    3    0    0  0.21245210419E+02  0.20480353144E+02 -0.27097875440E+03  0.27258079383E+03  0.00000000000E+00 0.  1.
         14    1    3    3    0    0  0.39361704342E+02 -0.72832909693E+02 -0.49046177630E+03  0.49739997036E+03  0.00000000000E+00 0. -1.
          5    1    4    4  501    0  0.77176047192E+02  0.35302934262E+02  0.10361311064E+03  0.13401569357E+03  0.47000000000E+01 0.  1.
         -5    1    4    4    0  501  0.10114532242E+03  0.10355543619E+03  0.15352492020E+01  0.14483974455E+03  0.47000000000E+01 0.  1.
          1    1    1    2  502    0 -0.70129700513E+02  0.12138986938E+02  0.15753301703E+04  0.15769371184E+04  0.00000000000E+00 0. -1.
          1    1    1    2  503    0 -0.12924554303E+03  0.47720035607E+02 -0.65648856413E+03  0.67078971893E+03  0.00000000000E+00 0. -1.
<mgrwt>
<rscale>  0 0.81765799E+02</rscale>
<asrwt>0</asrwt>
<pdfrwt beam="1">  1        2 0.34735107E+00 0.71172536E+02</pdfrwt>
<pdfrwt beam="2">  1        2 0.22493217E+00 0.93935755E+02</pdfrwt>
<totfact> 0.15465538E+01</totfact>
</mgrwt>
</event>
<event>
13    1  0.2101801E-008  0.5669272E+02  0.7546771E-02  0.1469350E+00
          2   -1    0    0  502    0  0.00000000000E+00  0.00000000000E+00  0.26031159390E+04  0.26031159390E+04  0.00000000000E+00 0. -1.
          2   -1    0    0  503    0 -0.00000000000E+00 -0.00000000000E+00 -0.17971086048E+04  0.17971086048E+04  0.00000000000E+00 0. -1.
         24    2    1    2    0    0 -0.13907308192E+03 -0.20540021915E+03 -0.26736592123E+03  0.37726831582E+03  0.96520848230E+02 0.  0.
         25    2    1    2    0    0  0.12936163408E+03  0.28230255241E+03  0.11279945927E+02  0.33493786594E+03  0.12500789332E+03 0.  0.
         24    2    1    2    0    0  0.63096795110E+01 -0.98382580739E+02  0.22199818260E+03  0.25643598235E+03  0.82202650296E+02 0.  0.
        -13    1    5    5    0    0  0.34982328803E+02 -0.48039108526E+02  0.60255517257E+02  0.84630057523E+02  0.00000000000E+00 0.  1.
         14    1    5    5    0    0 -0.28672649292E+02 -0.50343472213E+02  0.16174266534E+03  0.17180592482E+03  0.00000000000E+00 0. -1.
        -13    1    3    3    0    0 -0.14385513425E+02 -0.15301495610E+02 -0.79864737146E+02  0.82579991547E+02  0.00000000000E+00 0.  1.
         14    1    3    3    0    0 -0.12468756850E+03 -0.19009872354E+03 -0.18750118408E+03  0.29468832427E+03  0.00000000000E+00 0. -1.
          5    1    4    4  501    0  0.68260622578E+02  0.25239148192E+03 -0.14822251237E+02  0.26192128946E+03  0.47000000000E+01 0. -1.
         -5    1    4    4    0  501  0.61101011502E+02  0.29911070491E+02  0.26102197164E+02  0.73016576483E+02  0.47000000000E+01 0. -1.
          1    1    1    2  502    0 -0.23916846842E+02 -0.28251245863E+02  0.21350570799E+04  0.21353779251E+04  0.00000000000E+00 0. -1.
          1    1    1    2  503    0  0.27318615174E+02  0.49731493340E+02 -0.12949619530E+04  0.12962044545E+04  0.00000000000E+00 0. -1.
<mgrwt>
<rscale>  0 0.45809501E+02</rscale>
<asrwt>0</asrwt>
<pdfrwt beam="1">  1        2 0.38281117E+00 0.37015516E+02</pdfrwt>
<pdfrwt beam="2">  1        2 0.26428068E+00 0.56692721E+02</pdfrwt>
<totfact> 0.10104536E+01</totfact>
</mgrwt>
</event>
<event>
13    1  0.2101801E-008  0.8972407E+02  0.7546771E-02  0.1457019E+00
          2   -1    0    0  502    0  0.00000000000E+00  0.00000000000E+00  0.31165803741E+04  0.31165803741E+04  0.00000000000E+00 0. -1.
          2   -1    0    0  503    0 -0.00000000000E+00 -0.00000000000E+00 -0.33149946934E+04  0.33149946934E+04  0.00000000000E+00 0. -1.
         24    2    1    2    0    0 -0.46259472215E+03 -0.12411774351E+04 -0.88340745711E+03  0.15942258400E+04  0.81437038544E+02 0.  0.
         25    2    1    2    0    0  0.80383553393E+03  0.13987356112E+04  0.87982656862E+03  0.18418284779E+04  0.12499790129E+03 0.  0.
         24    2    1    2    0    0 -0.40563409251E+03 -0.19004690847E+03  0.93264130203E+03  0.10391698555E+04  0.96939908386E+02 0.  0.
        -11    1    3    3    0    0 -0.35320619660E+03 -0.97995777557E+03 -0.73151076883E+03  0.12728628615E+04  0.00000000000E+00 0.  1.
         12    1    3    3    0    0 -0.10938852555E+03 -0.26121965948E+03 -0.15189668827E+03  0.32136297847E+03  0.00000000000E+00 0. -1.
        -13    1    5    5    0    0 -0.14545504849E+03 -0.57190518216E+02  0.43359684359E+03  0.46090579219E+03  0.00000000000E+00 0.  1.
         14    1    5    5    0    0 -0.26017904402E+03 -0.13285639025E+03  0.49904445844E+03  0.57826406327E+03  0.00000000000E+00 0. -1.
          5    1    4    4  501    0  0.74888853487E+03  0.12793918848E+04  0.84259908494E+03  0.17051900013E+04  0.47000000000E+01 0. -1.
         -5    1    4    4    0  501  0.54946999060E+02  0.11934372640E+03  0.37227483684E+02  0.13663847656E+03  0.47000000000E+01 0. -1.
          1    1    1    2  502    0 -0.22846806190E+02  0.11482355040E+02  0.41273655922E+03  0.41352785680E+03  0.00000000000E+00 0. -1.
          1    1    1    2  503    0  0.87240086924E+02  0.21006377259E+02 -0.15402112920E+04  0.15428230374E+04  0.00000000000E+00 0. -1.
<mgrwt>
<rscale>  0 0.47898201E+02</rscale>
<asrwt>0</asrwt>
<pdfrwt beam="1">  1        2 0.45832064E+00 0.25569924E+02</pdfrwt>
<pdfrwt beam="2">  1        2 0.48749922E+00 0.89724067E+02</pdfrwt>
<totfact> 0.98249551E-01</totfact>
</mgrwt>
</event>
<event>
13    1  0.2101801E-008  0.1146776E+03  0.7546771E-02  0.1322380E+00
          2   -1    0    0  503    0  0.00000000000E+00  0.00000000000E+00  0.15049976325E+04  0.15049976325E+04  0.00000000000E+00 0. -1.
          2   -1    0    0  502    0 -0.00000000000E+00 -0.00000000000E+00 -0.28410220855E+04  0.28410220855E+04  0.00000000000E+00 0. -1.
         24    2    1    2    0    0 -0.26558814973E+03  0.36608611175E+01 -0.24899145803E+03  0.37141881213E+03  0.73516805219E+02 0.  0.
         25    2    1    2    0    0  0.13475355500E+03 -0.92586328227E+02  0.87479454530E+03  0.89867723771E+03  0.12499812934E+03 0.  0.
         24    2    1    2    0    0  0.55827696430E+02  0.10301494064E+03 -0.38905945123E+02  0.14751320922E+03  0.80732054621E+02 0.  0.
        -13    1    3    3    0    0 -0.43658415595E+02 -0.15016499754E+02 -0.15397909621E+02  0.48668759362E+02  0.00000000000E+00 0.  1.
         14    1    3    3    0    0 -0.22192973413E+03  0.18677360871E+02 -0.23359354841E+03  0.32275005277E+03  0.00000000000E+00 0. -1.
        -13    1    5    5    0    0  0.42781077289E+02  0.47201545058E+01 -0.93415178075E+01  0.44042756357E+02  0.00000000000E+00 0.  1.
         14    1    5    5    0    0  0.13046619141E+02  0.98294786135E+02 -0.29564427316E+02  0.10347045286E+03  0.00000000000E+00 0. -1.
          5    1    4    4  501    0  0.10122283764E+01 -0.71029131696E+01  0.35647502210E+03  0.35657819249E+03  0.47000000000E+01 0.  1.
         -5    1    4    4    0  501  0.13374132662E+03 -0.85483415057E+02  0.51831952320E+03  0.54209904522E+03  0.47000000000E+01 0.  1.
          1    1    1    2  502    0  0.89809024080E+02 -0.71413949361E+02 -0.24225603891E+04  0.24252761599E+04  0.00000000000E+00 0. -1.
          1    1    1    2  503    0 -0.14802125780E+02  0.57324475829E+02  0.49963879395E+03  0.50313429905E+03  0.00000000000E+00 0. -1.
<mgrwt>
<rscale>  0 0.82398136E+02</rscale>
<asrwt>0</asrwt>
<pdfrwt beam="1">  1        2 0.22132318E+00 0.59204717E+02</pdfrwt>
<pdfrwt beam="2">  1        2 0.41779736E+00 0.11467757E+03</pdfrwt>
<totfact> 0.88928415E+00</totfact>
</mgrwt>
</event>
<event>
13    1  0.2101801E-008  0.8141257E+02  0.7546771E-02  0.1387710E+00
          2   -1    0    0  502    0  0.00000000000E+00  0.00000000000E+00  0.24690086442E+04  0.24690086442E+04  0.00000000000E+00 0. -1.
          2   -1    0    0  503    0 -0.00000000000E+00 -0.00000000000E+00 -0.16422364575E+04  0.16422364575E+04  0.00000000000E+00 0. -1.
         24    2    1    2    0    0  0.23526916086E+02  0.52446021172E+02  0.65792954428E+02  0.11815360486E+03  0.79545336576E+02 0.  0.
         25    2    1    2    0    0 -0.19430124720E+03 -0.22794573325E+02  0.19078589633E+03  0.30049178312E+03  0.12499394484E+03 0.  0.
         24    2    1    2    0    0  0.44263958522E+02 -0.29273168372E+02  0.14780962895E+04  0.14812799493E+04  0.81273801683E+02 0.  0.
        -11    1    3    3    0    0  0.12010049170E+02  0.71705578022E+02  0.61671671855E+02  0.95337958390E+02  0.00000000000E+00 0.  1.
         12    1    3    3    0    0  0.11516866915E+02 -0.19259556851E+02  0.41212825721E+01  0.22815646466E+02  0.00000000000E+00 0. -1.
        -11    1    5    5    0    0  0.53712246120E+02 -0.24687149528E+02  0.14512352068E+04  0.14524386686E+04  0.00000000000E+00 0.  1.
         12    1    5    5    0    0 -0.94482875984E+01 -0.45860188444E+01  0.26861082703E+02  0.28841280682E+02  0.00000000000E+00 0. -1.
          5    1    4    4  501    0 -0.13847044987E+02  0.35181844346E+02  0.12133814948E+02  0.39985275935E+02  0.47000000000E+01 0.  1.
         -5    1    4    4    0  501 -0.18045420221E+03 -0.57976417671E+02  0.17865208138E+03  0.26050650718E+03  0.47000000000E+01 0.  1.
          1    1    1    2  502    0  0.79493573324E+02 -0.97914775792E+01  0.64887699795E+03  0.65380154458E+03  0.00000000000E+00 0. -1.
          1    1    1    2  503    0  0.47016799269E+02  0.94131981051E+01 -0.15567799515E+04  0.15575182198E+04  0.00000000000E+00 0. -1.
<mgrwt>
<rscale>  0 0.62479759E+02</rscale>
<asrwt>0</asrwt>
<pdfrwt beam="1">  1        2 0.36308950E+00 0.81412573E+02</pdfrwt>
<pdfrwt beam="2">  1        2 0.24150536E+00 0.47949846E+02</pdfrwt>
<totfact> 0.12605279E+01</totfact>
</mgrwt>
</event>
<event>
13    1  0.3232930E-008  0.1164909E+03  0.7546771E-02  0.1451943E+00
          2   -1    0    0  503    0  0.00000000000E+00  0.00000000000E+00  0.19402635962E+04  0.19402635962E+04  0.00000000000E+00 0. -1.
         -1   -1    0    0    0  501 -0.00000000000E+00 -0.00000000000E+00 -0.81145831940E+03  0.81145831940E+03  0.00000000000E+00 0.  1.
         24    2    1    2    0    0  0.29029685223E+02  0.19975271741E+02 -0.68374234907E+03  0.68926618762E+03  0.79640086513E+02 0.  0.
         25    2    1    2    0    0 -0.13757662724E+03  0.10379373968E+03  0.10694528408E+04  0.10904374162E+04  0.12499564459E+03 0.  0.
         24    2    1    2    0    0  0.64539033254E+01 -0.29126680219E+02  0.68089221296E+02  0.10828704943E+03  0.78739612960E+02 0.  0.
        -11    1    3    3    0    0  0.26972954592E+02  0.39298058017E+02 -0.63509952959E+03  0.63688561778E+03  0.00000000000E+00 0.  1.
         12    1    3    3    0    0  0.20567306310E+01 -0.19322786276E+02 -0.48642819481E+02  0.52380569846E+02  0.00000000000E+00 0. -1.
        -11    1    5    5    0    0 -0.18615078879E+02 -0.27911426770E+02 -0.22294517074E+01  0.33623494181E+02  0.00000000000E+00 0.  1.
         12    1    5    5    0    0  0.25068982204E+02 -0.12152534487E+01  0.70318673004E+02  0.74663555251E+02  0.00000000000E+00 0. -1.
          5    1    4    4  502    0 -0.24394820372E+02 -0.28393870540E+02  0.15182637100E+03  0.15644377928E+03  0.47000000000E+01 0. -1.
         -5    1    4    4    0  502 -0.11318180687E+03  0.13218761022E+03  0.91762646979E+03  0.93399363690E+03  0.47000000000E+01 0. -1.
          1    1    1    2  503    0 -0.16001165998E+02 -0.12718717119E+02  0.71440784192E+03  0.71470019426E+03  0.00000000000E+00 0. -1.
         -2    1    1    2    0  501  0.11809420469E+03 -0.81923614081E+02 -0.39402278178E+02  0.14903106807E+03  0.00000000000E+00 0.  1.
<mgrwt>
<rscale>  0 0.48796518E+02</rscale>
<asrwt>0</asrwt>
<pdfrwt beam="1">  1        2 0.28533288E+00 0.20440232E+02</pdfrwt>
<pdfrwt beam="2">  1       -1 0.11933211E+00 0.11649086E+03</pdfrwt>
<totfact> 0.94414859E+00</totfact>
</mgrwt>
</event>
<event>
13    1  0.2101801E-008  0.1023940E+03  0.7546771E-02  0.1316013E+00
          2   -1    0    0  503    0  0.00000000000E+00  0.00000000000E+00  0.47436451423E+03  0.47436451423E+03  0.00000000000E+00 0. -1.
          2   -1    0    0  502    0 -0.00000000000E+00 -0.00000000000E+00 -0.20951063191E+04  0.20951063191E+04  0.00000000000E+00 0. -1.
         24    2    1    2    0    0 -0.91424873101E+02  0.71200474677E+02 -0.59371045679E+03  0.61017640080E+03  0.79969485273E+02 0.  0.
         25    2    1    2    0    0  0.13128836496E+03 -0.36251098324E+02  0.15039629692E+03  0.23831957511E+03  0.12500558728E+03 0.  0.
         24    2    1    2    0    0 -0.45197010329E+01 -0.72301179706E+02 -0.40990032803E+03  0.42384110538E+03  0.79844319816E+02 0.  0.
        -13    1    5    5    0    0 -0.38380546582E+02 -0.25622308905E+02 -0.24069659095E+03  0.24508043162E+03  0.00000000000E+00 0.  1.
         14    1    5    5    0    0  0.33860845549E+02 -0.46678870800E+02 -0.16920373708E+03  0.17876067376E+03  0.00000000000E+00 0. -1.
        -13    1    3    3    0    0 -0.76647739821E+02  0.16489346411E+02 -0.42586715937E+03  0.43302380073E+03  0.00000000000E+00 0.  1.
         14    1    3    3    0    0 -0.14777133280E+02  0.54711128266E+02 -0.16784329742E+03  0.17715260007E+03  0.00000000000E+00 0. -1.
          5    1    4    4  501    0 -0.39552634891E+01 -0.47438202790E+02  0.27498926110E+02  0.55175249256E+02  0.47000000000E+01 0.  1.
         -5    1    4    4    0  501  0.13524362845E+03  0.11187104466E+02  0.12289737081E+03  0.18314432586E+03  0.47000000000E+01 0.  1.
          1    1    1    2  502    0 -0.10200623471E+03  0.15370036093E+02 -0.10250441263E+04  0.10302218066E+04  0.00000000000E+00 0. -1.
          1    1    1    2  503    0  0.66662443888E+02  0.21981767259E+02  0.25751680934E+03  0.26691194543E+03  0.00000000000E+00 0. -1.
<mgrwt>
<rscale>  0 0.84778288E+02</rscale>
<asrwt>0</asrwt>
<pdfrwt beam="1">  1        2 0.69759490E-01 0.70193159E+02</pdfrwt>
<pdfrwt beam="2">  1        2 0.30810386E+00 0.10239400E+03</pdfrwt>
<totfact> 0.90045983E+01</totfact>
</mgrwt>
</event>
<event>
13    1  0.2101801E-008  0.1189047E+03  0.7546771E-02  0.1294665E+00
          2   -1    0    0  502    0  0.00000000000E+00  0.00000000000E+00  0.31237300502E+04  0.31237300502E+04  0.00000000000E+00 0. -1.
          2   -1    0    0  503    0 -0.00000000000E+00 -0.00000000000E+00 -0.21250968528E+04  0.21250968528E+04  0.00000000000E+00 0. -1.
         24    2    1    2    0    0 -0.92707014622E+02 -0.38696479772E+03  0.55740977986E+03  0.68964446153E+03  0.81039961802E+02 0.  0.
         25    2    1    2    0    0  0.50338246938E+03  0.53219727934E+02  0.56907487351E+03  0.77181422066E+03  0.12499891850E+03 0.  0.
         24    2    1    2    0    0 -0.34072450714E+03  0.29460259711E+03 -0.18160228561E+03  0.49118342830E+03  0.73470334868E+02 0.  0.
        -11    1    3    3    0    0 -0.59007978284E+02 -0.92648176502E+02  0.15042114801E+03  0.18625828272E+03  0.00000000000E+00 0.  1.
         12    1    3    3    0    0 -0.33699036337E+02 -0.29431662122E+03  0.40698863184E+03  0.50338617882E+03  0.00000000000E+00 0. -1.
        -11    1    5    5    0    0 -0.11729251976E+03  0.11125297427E+03 -0.10288496518E+03  0.19162483016E+03  0.00000000000E+00 0.  1.
         12    1    5    5    0    0 -0.22343198738E+03  0.18334962284E+03 -0.78717320432E+02  0.29955859813E+03  0.00000000000E+00 0. -1.
          5    1    4    4  501    0  0.23193151343E+03 -0.43537857034E+01  0.17879071742E+03  0.29291533420E+03  0.47000000000E+01 0.  1.
         -5    1    4    4    0  501  0.27145095595E+03  0.57573513637E+02  0.39028415608E+03  0.47889888646E+03  0.47000000000E+01 0.  1.
          1    1    1    2  502    0 -0.11799557256E+03 -0.16444580293E+02  0.16720147798E+04  0.16762538004E+04  0.00000000000E+00 0. -1.
          1    1    1    2  503    0  0.48044624939E+02  0.55587052966E+02 -0.16182639502E+04  0.16199309920E+04  0.00000000000E+00 0. -1.
<mgrwt>
<rscale>  0 0.93467764E+02</rscale>
<asrwt>0</asrwt>
<pdfrwt beam="1">  1        2 0.45937207E+00 0.11890468E+03</pdfrwt>
<pdfrwt beam="2">  1        2 0.31251424E+00 0.73472488E+02</pdfrwt>
<totfact> 0.31043151E+00</totfact>
</mgrwt>
</event>
<event>
13    1  0.2101801E-008  0.6569350E+02  0.7546771E-02  0.1496018E+00
          2   -1    0    0  502    0  0.00000000000E+00  0.00000000000E+00  0.11882849284E+04  0.11882849284E+04  0.00000000000E+00 0. -1.
          2   -1    0    0  503    0 -0.00000000000E+00 -0.00000000000E+00 -0.10170913045E+04  0.10170913045E+04  0.00000000000E+00 0. -1.
         24    2    1    2    0    0  0.13510949847E+01  0.14804249408E+03 -0.15035313843E+03  0.23551778859E+03  0.10461432501E+03 0.  0.
         25    2    1    2    0    0  0.20374234227E+02 -0.11823693613E+03  0.37666591976E+03  0.41460754692E+03  0.12500848119E+03 0.  0.
         24    2    1    2    0    0 -0.13552856681E+01 -0.63914932260E+02 -0.11983289476E+03  0.15849777604E+03  0.81698635098E+02 0.  0.
        -11    1    5    5    0    0  0.15104669154E+02  0.11612593308E+02 -0.52969542828E+02  0.56291880596E+02  0.00000000000E+00 0.  1.
         12    1    5    5    0    0 -0.16459954822E+02 -0.75527525568E+02 -0.66863351931E+02  0.10220589544E+03  0.00000000000E+00 0. -1.
        -11    1    3    3    0    0  0.18887678441E+02  0.31946927992E+02 -0.10199387339E+03  0.10853617284E+03  0.00000000000E+00 0.  1.
         12    1    3    3    0    0 -0.17536583456E+02  0.11609556609E+03 -0.48359265039E+02  0.12698161575E+03  0.00000000000E+00 0. -1.
          5    1    4    4  501    0  0.38343946205E+02 -0.11628693442E+03  0.37649161044E+03  0.39593046366E+03  0.47000000000E+01 0. -1.
         -5    1    4    4    0  501 -0.17969711978E+02 -0.19500017048E+01  0.17430932251E+00  0.18677083256E+02  0.47000000000E+01 0. -1.
          1    1    1    2  502    0  0.80322277081E+01 -0.25229909514E+02  0.72886794199E+03  0.72934871076E+03  0.00000000000E+00 0. -1.
          1    1    1    2  503    0 -0.28402271252E+02  0.59339283824E+02 -0.66415420469E+03  0.66740441055E+03  0.00000000000E+00 0. -1.
<mgrwt>
<rscale>  0 0.41706216E+02</rscale>
<asrwt>0</asrwt>
<pdfrwt beam="1">  1        2 0.17474778E+00 0.26477632E+02</pdfrwt>
<pdfrwt beam="2">  1        2 0.14957225E+00 0.65693504E+02</pdfrwt>
<totfact> 0.11468753E+02</totfact>
</mgrwt>
</event>
<event>
13    1  0.2101801E-008  0.1456623E+03  0.7546771E-02  0.1266569E+00
          2   -1    0    0  503    0  0.00000000000E+00  0.00000000000E+00  0.15196809926E+04  0.15196809926E+04  0.00000000000E+00 0. -1.
          2   -1    0    0  502    0 -0.00000000000E+00 -0.00000000000E+00 -0.27210641820E+04  0.27210641820E+04  0.00000000000E+00 0. -1.
         24    2    1    2    0    0 -0.26125832458E+02 -0.12315789398E+03 -0.36734899964E+03  0.39674928241E+03  0.81328221326E+02 0.  0.
         25    2    1    2    0    0 -0.13621258404E+03  0.53022865585E+02  0.99332183077E+02  0.21646695660E+03  0.12500307347E+03 0.  0.
         24    2    1    2    0    0  0.46484217819E+02  0.37144093827E+02  0.48744987173E+03  0.49746502877E+03  0.79521136727E+02 0.  0.
        -11    1    5    5    0    0  0.61208020911E+02  0.20406365002E+01  0.29720589056E+03  0.30345004104E+03  0.00000000000E+00 0.  1.
         12    1    5    5    0    0 -0.14723803092E+02  0.35103457327E+02  0.19024398117E+03  0.19401498773E+03  0.00000000000E+00 0. -1.
        -13    1    3    3    0    0 -0.48940330560E+02 -0.11488974825E+03 -0.29180555029E+03  0.31740398451E+03  0.00000000000E+00 0.  1.
         14    1    3    3    0    0  0.22814498102E+02 -0.82681457280E+01 -0.75543449355E+02  0.79345297894E+02  0.00000000000E+00 0. -1.
          5    1    4    4  501    0 -0.13484097108E+03  0.46198855686E+01  0.42235113884E+02  0.14145432362E+03  0.47000000000E+01 0. -1.
         -5    1    4    4    0  501 -0.13716129621E+01  0.48402980017E+02  0.57097069193E+02  0.75012632983E+02  0.47000000000E+01 0. -1.
          1    1    1    2  502    0  0.16280114481E+03  0.95705603212E+02 -0.22697150768E+04  0.22775579697E+04  0.00000000000E+00 0. -1.
          1    1    1    2  503    0 -0.46946946129E+02 -0.62714668648E+02  0.84889883229E+03  0.85250593715E+03  0.00000000000E+00 0. -1.
<mgrwt>
<rscale>  0 0.10682311E+03</rscale>
<asrwt>0</asrwt>
<pdfrwt beam="1">  1        2 0.22348250E+00 0.78339935E+02</pdfrwt>
<pdfrwt beam="2">  1        2 0.40015650E+00 0.14566231E+03</pdfrwt>
<totfact> 0.95527469E+00</totfact>
</mgrwt>
</event>
<event>
13    1  0.2101801E-008  0.5410620E+02  0.7546771E-02  0.1487888E+00
          2   -1    0    0  503    0  0.00000000000E+00  0.00000000000E+00  0.29132340936E+04  0.29132340936E+04  0.00000000000E+00 0. -1.
          2   -1    0    0  502    0 -0.00000000000E+00 -0.00000000000E+00 -0.41095662800E+03  0.41095662800E+03  0.00000000000E+00 0. -1.
         24    2    1    2    0    0 -0.49231526257E+02  0.40277323655E+02  0.18107992935E+02  0.10383749699E+03  0.80051985576E+02 0.  0.
         25    2    1    2    0    0  0.94656607879E+02 -0.25770363412E+03  0.20957788411E+04  0.21173765387E+04  0.12499367762E+03 0.  0.
         24    2    1    2    0    0 -0.57945530830E+02  0.13324207059E+03  0.31083632376E+03  0.35215489621E+03  0.79263590886E+02 0.  0.
        -13    1    5    5    0    0 -0.50210770778E+02  0.57825282014E+02  0.87389588127E+02  0.11619735305E+03  0.00000000000E+00 0.  1.
         14    1    5    5    0    0 -0.77347600519E+01  0.75416788578E+02  0.22344673563E+03  0.23595754316E+03  0.00000000000E+00 0. -1.
        -13    1    3    3    0    0 -0.66774836549E+02  0.12995356093E+02  0.21200793746E+02  0.71254696207E+02  0.00000000000E+00 0.  1.
         14    1    3    3    0    0  0.17543310291E+02  0.27281967562E+02 -0.30928008113E+01  0.32582800783E+02  0.00000000000E+00 0. -1.
          5    1    4    4  501    0 -0.26785398102E+02 -0.93296873873E+02  0.66298018369E+03  0.67006460748E+03  0.47000000000E+01 0.  1.
         -5    1    4    4    0  501  0.12144200598E+03 -0.16440676025E+03  0.14327986574E+04  0.14473119312E+04  0.47000000000E+01 0.  1.
          1    1    1    2  502    0  0.14437421603E+02  0.30800408419E+02 -0.33404404255E+03  0.33577153939E+03  0.00000000000E+00 0. -1.
          1    1    1    2  503    0 -0.19169723943E+01  0.53383831458E+02  0.41159835035E+03  0.41505025028E+03  0.00000000000E+00 0. -1.
<mgrwt>
<rscale>  0 0.42900925E+02</rscale>
<asrwt>0</asrwt>
<pdfrwt beam="1">  1        2 0.42841677E+00 0.54106203E+02</pdfrwt>
<pdfrwt beam="2">  1        2 0.60434800E-01 0.34016236E+02</pdfrwt>
<totfact> 0.45049794E+01</totfact>
</mgrwt>
</event>
<event>
13    1  0.2101801E-008  0.1094810E+03  0.7546771E-02  0.1343309E+00
          2   -1    0    0  502    0  0.00000000000E+00  0.00000000000E+00  0.11873830682E+04  0.11873830682E+04  0.00000000000E+00 0. -1.
          2   -1    0    0  503    0 -0.00000000000E+00 -0.00000000000E+00 -0.41540103532E+04  0.41540103532E+04  0.00000000000E+00 0. -1.
         24    2    1    2    0    0  0.16496528228E+03  0.14142808176E+03 -0.16838220901E+04  0.16996279394E+04  0.79138198575E+02 0.  0.
         25    2    1    2    0    0 -0.11734440369E+03 -0.16954347448E+03 -0.12489155632E+03  0.27154783318E+03  0.12500250416E+03 0.  0.
         24    2    1    2    0    0 -0.71269519722E+02  0.85020174656E+02 -0.67947425727E+02  0.15023397567E+03  0.75137342540E+02 0.  0.
        -11    1    5    5    0    0 -0.55850875889E+02  0.98588682203E+02 -0.59966086418E+02  0.12819898641E+03  0.00000000000E+00 0.  1.
         12    1    5    5    0    0 -0.15418643833E+02 -0.13568507548E+02 -0.79813393094E+01  0.22034989264E+02  0.00000000000E+00 0. -1.
        -13    1    3    3    0    0  0.70205155230E+02  0.15899381049E+02 -0.43062325924E+03  0.43659815109E+03  0.00000000000E+00 0.  1.
         14    1    3    3    0    0  0.94760127048E+02  0.12552870071E+03 -0.12531988309E+04  0.12630297883E+04  0.00000000000E+00 0. -1.
          5    1    4    4  501    0 -0.38332356821E+02 -0.44635186736E+01  0.14452281141E+02  0.41475908773E+02  0.47000000000E+01 0. -1.
         -5    1    4    4    0  501 -0.79012046870E+02 -0.16507995581E+03 -0.13934383746E+03  0.23007192440E+03  0.47000000000E+01 0. -1.
          1    1    1    2  502    0 -0.39548547242E+02  0.33186846512E+02  0.10629768729E+04  0.10642299031E+04  0.00000000000E+00 0. -1.
          1    1    1    2  503    0  0.63197188376E+02 -0.90091628448E+02 -0.21529430858E+04  0.21557537700E+04  0.00000000000E+00 0. -1.
<mgrwt>
<rscale>  0 0.75181702E+02</rscale>
<asrwt>0</asrwt>
<pdfrwt beam="1">  1        2 0.17461516E+00 0.51628039E+02</pdfrwt>
<pdfrwt beam="2">  1        2 0.61088388E+00 0.10948098E+03</pdfrwt>
<totfact> 0.21303210E+00</totfact>
</mgrwt>
</event>
<event>
13    1  0.2101801E-008  0.6582866E+02  0.7546771E-02  0.1382100E+00
          2   -1    0    0  503    0  0.00000000000E+00  0.00000000000E+00  0.24374377513E+03  0.24374377513E+03  0.00000000000E+00 0. -1.
          2   -1    0    0  502    0 -0.00000000000E+00 -0.00000000000E+00 -0.17871696362E+04  0.17871696362E+04  0.00000000000E+00 0. -1.
         24    2    1    2    0    0  0.21025170203E+03  0.63083019121E+02 -0.82800706789E+03  0.85905862161E+03  0.64813311805E+02 0.  0.
         25    2    1    2    0    0 -0.17036458036E+03 -0.24846641307E+03 -0.11667635892E+03  0.34639617965E+03  0.12496916371E+03 0.  0.
         24    2    1    2    0    0 -0.33355978643E+02  0.74054485716E+02 -0.16037190794E+02  0.11546854181E+03  0.80492884737E+02 0.  0.
        -11    1    5    5    0    0  0.35813307908E+01  0.71638954166E+01 -0.35683926606E+02  0.36571709637E+02  0.00000000000E+00 0.  1.
         12    1    5    5    0    0 -0.36937309434E+02  0.66890590300E+02  0.19646735812E+02  0.78896832173E+02  0.00000000000E+00 0. -1.
        -13    1    3    3    0    0  0.36971698633E+02 -0.71603609618E+01 -0.86517701974E+02  0.94358306596E+02  0.00000000000E+00 0.  1.
         14    1    3    3    0    0  0.17328000340E+03  0.70243380082E+02 -0.74148936591E+03  0.76470031501E+03  0.00000000000E+00 0. -1.
          5    1    4    4  501    0 -0.10028640970E+03 -0.61145547615E+02 -0.82080039358E+02  0.14337142262E+03  0.47000000000E+01 0.  1.
         -5    1    4    4    0  501 -0.70078170660E+02 -0.18732086546E+03 -0.34596319567E+02  0.20302475703E+03  0.47000000000E+01 0.  1.
          1    1    1    2  502    0 -0.33877773847E+02  0.51993638051E+02 -0.62763678817E+03  0.63069721723E+03  0.00000000000E+00 0. -1.
          1    1    1    2  503    0  0.27346630814E+02  0.59335270187E+02  0.44931544747E+02  0.79292850992E+02  0.00000000000E+00 0. -1.
<mgrwt>
<rscale>  0 0.63914894E+02</rscale>
<asrwt>0</asrwt>
<pdfrwt beam="1">  1        2 0.35844672E-01 0.65828660E+02</pdfrwt>
<pdfrwt beam="2">  1        2 0.26281907E+00 0.62056764E+02</pdfrwt>
<totfact> 0.26529927E+02</totfact>
</mgrwt>
</event>
<event>
13    1  0.2101801E-008  0.7293231E+02  0.7546771E-02  0.1509384E+00
          2   -1    0    0  503    0  0.00000000000E+00  0.00000000000E+00  0.57701121409E+03  0.57701121409E+03  0.00000000000E+00 0. -1.
          2   -1    0    0  502    0 -0.00000000000E+00 -0.00000000000E+00 -0.10907406824E+04  0.10907406824E+04  0.00000000000E+00 0. -1.
         24    2    1    2    0    0  0.66108048464E+02  0.22636744026E+02 -0.49146981878E+03  0.50339979743E+03  0.83582755583E+02 0.  0.
         25    2    1    2    0    0 -0.46616793548E+02  0.20834959081E+03  0.25269639704E+03  0.35363996676E+03  0.12499231809E+03 0.  0.
         24    2    1    2    0    0  0.38134963334E+02 -0.15832604735E+03 -0.15794022340E+02  0.18234640517E+03  0.80494395066E+02 0.  0.
        -11    1    3    3    0    0 -0.12687946998E+02 -0.37815699140E+01 -0.16215637508E+02  0.20933971669E+02  0.00000000000E+00 0.  1.
         12    1    3    3    0    0  0.78795995463E+02  0.26418313940E+02 -0.47525418127E+03  0.48246582576E+03  0.00000000000E+00 0. -1.
        -13    1    5    5    0    0  0.48589126210E+02 -0.16305899515E+03 -0.13849679667E+02  0.17070721342E+03  0.00000000000E+00 0.  1.
         14    1    5    5    0    0 -0.10454162876E+02  0.47329477949E+01 -0.19443426726E+01  0.11639191754E+02  0.00000000000E+00 0. -1.
          5    1    4    4  501    0  0.15077860280E+02  0.16648381551E+03  0.13829546538E+03  0.21700674745E+03  0.47000000000E+01 0. -1.
         -5    1    4    4    0  501 -0.61694653828E+02  0.41865775302E+02  0.11440093166E+03  0.13663321931E+03  0.47000000000E+01 0. -1.
          1    1    1    2  502    0 -0.38948826881E+02 -0.61487385435E+02 -0.44012290781E+03  0.44610075505E+03  0.00000000000E+00 0. -1.
          1    1    1    2  503    0 -0.18677391370E+02 -0.11172902045E+02  0.18096088353E+03  0.18226497211E+03  0.00000000000E+00 0. -1.
<mgrwt>
<rscale>  0 0.39841065E+02</rscale>
<asrwt>0</asrwt>
<pdfrwt beam="1">  1        2 0.84854592E-01 0.21764161E+02</pdfrwt>
<pdfrwt beam="2">  1        2 0.16040304E+00 0.72932306E+02</pdfrwt>
<totfact> 0.24015511E+02</totfact>
</mgrwt>
</event>
<event>
13    1  0.2101801E-008  0.1388967E+03  0.7546771E-02  0.1248903E+00
          2   -1    0    0  503    0  0.00000000000E+00  0.00000000000E+00  0.45495002668E+03  0.45495002668E+03  0.00000000000E+00 0. -1.
          2   -1    0    0  502    0 -0.00000000000E+00 -0.00000000000E+00 -0.11647108030E+04  0.11647108030E+04  0.00000000000E+00 0. -1.
         24    2    1    2    0    0 -0.23472469003E+02 -0.47497391116E+02 -0.22212332263E+03  0.24179558786E+03  0.79494508544E+02 0.  0.
         25    2    1    2    0    0  0.13076561137E+03  0.11247404601E+03 -0.22425015137E+03  0.30929161702E+03  0.12499247108E+03 0.  0.
         24    2    1    2    0    0 -0.63316821853E+02 -0.12193201842E+03 -0.89381448285E+02  0.18327446179E+03  0.82000292679E+02 0.  0.
        -11    1    3    3    0    0  0.28453032044E+02 -0.83664972305E+01 -0.85313385580E+02  0.90321354438E+02  0.00000000000E+00 0.  1.
         12    1    3    3    0    0 -0.51925501047E+02 -0.39130893885E+02 -0.13680993705E+03  0.15147423343E+03  0.00000000000E+00 0. -1.
        -13    1    5    5    0    0 -0.40204307598E+02 -0.68477736689E+01 -0.11387876258E+02  0.42343382946E+02  0.00000000000E+00 0.  1.
         14    1    5    5    0    0 -0.23112514255E+02 -0.11508424475E+03 -0.77993572027E+02  0.14093107884E+03  0.00000000000E+00 0. -1.
          5    1    4    4  501    0  0.48720564629E+02 -0.10007274454E+02 -0.12961214293E+02  0.51613196333E+02  0.47000000000E+01 0.  1.
         -5    1    4    4    0  501  0.82045046742E+02  0.12248132046E+03 -0.21128893707E+03  0.25767842068E+03  0.47000000000E+01 0.  1.
          1    1    1    2  502    0  0.95058768763E+02  0.83536393567E+02 -0.50748256400E+03  0.52302299312E+03  0.00000000000E+00 0. -1.
          1    1    1    2  503    0 -0.13903508928E+03 -0.26581030036E+02  0.33347670995E+03  0.36227616991E+03  0.00000000000E+00 0. -1.
<mgrwt>
<rscale>  0 0.11654783E+03</rscale>
<asrwt>0</asrwt>
<pdfrwt beam="1">  1        2 0.66904417E-01 0.13889672E+03</pdfrwt>
<pdfrwt beam="2">  1        2 0.17128100E+00 0.97794938E+02</pdfrwt>
<totfact> 0.27111946E+02</totfact>
</mgrwt>
</event>
<event>
13    1  0.2101801E-008  0.3069409E+03  0.7546771E-02  0.1126141E+00
          2   -1    0    0  502    0  0.00000000000E+00  0.00000000000E+00  0.15390090447E+04  0.15390090447E+04  0.00000000000E+00 0. -1.
          2   -1    0    0  503    0 -0.00000000000E+00 -0.00000000000E+00 -0.42698696666E+03  0.42698696666E+03  0.00000000000E+00 0. -1.
         24    2    1    2    0    0 -0.15208461123E+03 -0.26367042389E+03  0.21875636979E+03  0.38337572998E+03  0.80441156198E+02 0.  0.
         25    2    1    2    0    0  0.78511764072E+02  0.25182808654E+02  0.79431318727E+03  0.80830557982E+03  0.12500479967E+03 0.  0.
         24    2    1    2    0    0 -0.84161030770E+02 -0.31437580702E+02  0.28954388159E+02  0.12383931057E+03  0.80164940391E+02 0.  0.
        -13    1    3    3    0    0 -0.41242207144E+02 -0.30169573477E+02  0.12272837542E+02  0.52552310656E+02  0.00000000000E+00 0.  1.
         14    1    3    3    0    0 -0.11084240408E+03 -0.23350085041E+03  0.20648353225E+03  0.33082341932E+03  0.00000000000E+00 0. -1.
        -13    1    5    5    0    0 -0.80411343324E+01 -0.44775593782E+01 -0.25053312208E+02  0.26690388381E+02  0.00000000000E+00 0.  1.
         14    1    5    5    0    0 -0.76119896437E+02 -0.26960021324E+02  0.54007700367E+02  0.97148922188E+02  0.00000000000E+00 0. -1.
          5    1    4    4  501    0  0.10347427635E+03 -0.77725870752E+01  0.64470513320E+03  0.65301924762E+03  0.47000000000E+01 0.  1.
         -5    1    4    4    0  501 -0.24962512277E+02  0.32955395729E+02  0.14960805407E+03  0.15528633220E+03  0.47000000000E+01 0.  1.
          1    1    1    2  502    0  0.25672402822E+03 -0.68772178303E+02  0.12438410898E+03  0.29344206539E+03  0.00000000000E+00 0. -1.
          1    1    1    2  503    0 -0.98990150301E+02  0.33869737424E+03 -0.54385976180E+02  0.35703332558E+03  0.00000000000E+00 0. -1.
<mgrwt>
<rscale>  0 0.23071067E+03</rscale>
<asrwt>0</asrwt>
<pdfrwt beam="1">  1        2 0.22632486E+00 0.30694091E+03</pdfrwt>
<pdfrwt beam="2">  1        2 0.62792201E-01 0.17341258E+03</pdfrwt>
<totfact> 0.17126737E+02</totfact>
</mgrwt>
</event>
<event>
13    1  0.2101801E-008  0.1107869E+03  0.7546771E-02  0.1316943E+00
          2   -1    0    0  502    0  0.00000000000E+00  0.00000000000E+00  0.84796918427E+03  0.84796918427E+03  0.00000000000E+00 0. -1.
          2   -1    0    0  503    0 -0.00000000000E+00 -0.00000000000E+00 -0.81743892129E+03  0.81743892129E+03  0.00000000000E+00 0. -1.
         24    2    1    2    0    0 -0.66892458666E+02 -0.46207522514E+02 -0.27742796017E+02  0.11735788721E+03  0.79959207082E+02 0.  0.
         25    2    1    2    0    0  0.24306354621E+02  0.28627925323E+01 -0.15237114974E+03  0.19859907886E+03  0.12500252956E+03 0.  0.
         24    2    1    2    0    0 -0.23462188421E+02  0.30178804817E+02 -0.98105972699E+02  0.13209779761E+03  0.79773502550E+02 0.  0.
        -11    1    5    5    0    0  0.24327244384E+02 -0.17271915354E+01 -0.88494588962E+01  0.25944381524E+02  0.00000000000E+00 0.  1.
         12    1    5    5    0    0 -0.47789432805E+02  0.31905996353E+02 -0.89256513803E+02  0.10615341609E+03  0.00000000000E+00 0. -1.
        -13    1    3    3    0    0 -0.26657956464E+02 -0.51937545648E+02  0.13002002850E+02  0.59809759813E+02  0.00000000000E+00 0.  1.
         14    1    3    3    0    0 -0.40234502202E+02  0.57300231342E+01 -0.40744798868E+02  0.57548127401E+02  0.00000000000E+00 0. -1.
          5    1    4    4  501    0  0.45194308305E+02 -0.10080254349E+01 -0.78143408469E+00  0.45455937541E+02  0.47000000000E+01 0. -1.
         -5    1    4    4    0  501 -0.20887953684E+02  0.38708179671E+01 -0.15158971566E+03  0.15314314132E+03  0.47000000000E+01 0. -1.
          1    1    1    2  502    0 -0.24964730532E+02 -0.59294662573E+02  0.75421209164E+03  0.75695110407E+03  0.00000000000E+00 0. -1.
          1    1    1    2  503    0  0.91013022998E+02  0.72460587737E+02 -0.44546191020E+03  0.46040223780E+03  0.00000000000E+00 0. -1.
<mgrwt>
<rscale>  0 0.84424900E+02</rscale>
<asrwt>0</asrwt>
<pdfrwt beam="1">  1        2 0.12470135E+00 0.64335797E+02</pdfrwt>
<pdfrwt beam="2">  1        2 0.12021161E+00 0.11078690E+03</pdfrwt>
<totfact> 0.21690022E+02</totfact>
</mgrwt>
</event>
<event>
13    1  0.2101801E-008  0.6888463E+02  0.7546771E-02  0.1414848E+00
          2   -1    0    0  502    0  0.00000000000E+00  0.00000000000E+00  0.20977131516E+04  0.20977131516E+04  0.00000000000E+00 0. -1.
          2   -1    0    0  503    0 -0.00000000000E+00 -0.00000000000E+00 -0.16693137422E+04  0.16693137422E+04  0.00000000000E+00 0. -1.
         24    2    1    2    0    0 -0.10743139495E+03 -0.44554631627E+02 -0.24026464794E+03  0.27949381983E+03  0.82843674784E+02 0.  0.
         25    2    1    2    0    0  0.12352866999E+03 -0.21040029560E+02  0.11962215537E+04  0.12092435095E+04  0.12498737776E+03 0.  0.
         24    2    1    2    0    0  0.15737701585E+02 -0.31271242970E+02  0.15957441769E+03  0.18179323383E+03  0.79744712668E+02 0.  0.
        -11    1    3    3    0    0 -0.28125941108E+02 -0.17630504578E+02 -0.10304761418E+02  0.34757608703E+02  0.00000000000E+00 0.  1.
         12    1    3    3    0    0 -0.79305453843E+02 -0.26924127049E+02 -0.22995988652E+03  0.24473621112E+03  0.00000000000E+00 0. -1.
        -11    1    5    5    0    0  0.77561022709E+01 -0.58326375618E+02  0.10516442189E+03  0.12050592868E+03  0.00000000000E+00 0.  1.
         12    1    5    5    0    0  0.79815993140E+01  0.27055132649E+02  0.54409995800E+02  0.61287305155E+02  0.00000000000E+00 0. -1.
          5    1    4    4  501    0  0.63258303423E+02 -0.10016547983E+02  0.10304460269E+04  0.10324451794E+04  0.47000000000E+01 0.  1.
         -5    1    4    4    0  501  0.60270366564E+02 -0.11023481577E+02  0.16577552686E+03  0.17679833013E+03  0.47000000000E+01 0.  1.
          1    1    1    2  502    0  0.41171441616E+01  0.68604343105E+02  0.70262946498E+03  0.70598277020E+03  0.00000000000E+00 0. -1.
          1    1    1    2  503    0 -0.35952120782E+02  0.28261561051E+02 -0.13897613790E+04  0.13905135603E+04  0.00000000000E+00 0. -1.
<mgrwt>
<rscale>  0 0.56125955E+02</rscale>
<asrwt>0</asrwt>
<pdfrwt beam="1">  1        2 0.30848723E+00 0.68884634E+02</pdfrwt>
<pdfrwt beam="2">  1        2 0.24548731E+00 0.45730415E+02</pdfrwt>
<totfact> 0.18947105E+01</totfact>
</mgrwt>
</event>
<event>
13    1  0.2101801E-008  0.1956256E+03  0.7546771E-02  0.1275824E+00
          2   -1    0    0  502    0  0.00000000000E+00  0.00000000000E+00  0.30919174433E+04  0.30919174433E+04  0.00000000000E+00 0. -1.
          2   -1    0    0  503    0 -0.00000000000E+00 -0.00000000000E+00 -0.38678725109E+04  0.38678725109E+04  0.00000000000E+00 0. -1.
         24    2    1    2    0    0  0.41689361104E+01 -0.67628725168E+03 -0.50835176552E+03  0.85196578972E+03  0.10021158876E+03 0.  0.
         25    2    1    2    0    0 -0.51287113668E+02  0.63777073074E+03 -0.65713172727E+02  0.65522927401E+03  0.12500122971E+03 0.  0.
         24    2    1    2    0    0 -0.50862596375E+02  0.26116243241E+03 -0.31001423323E+03  0.41582342660E+03  0.77507918897E+02 0.  0.
        -11    1    3    3    0    0  0.37074950300E+02 -0.46238379598E+03 -0.38524865889E+03  0.60298412575E+03  0.00000000000E+00 0.  1.
         12    1    3    3    0    0 -0.32906014190E+02 -0.21390345570E+03 -0.12310310663E+03  0.24898166397E+03  0.00000000000E+00 0. -1.
        -13    1    5    5    0    0 -0.35672395081E+02  0.33596007249E+02 -0.51743742164E+02  0.71264481525E+02  0.00000000000E+00 0.  1.
         14    1    5    5    0    0 -0.15190201295E+02  0.22756642516E+03 -0.25827049106E+03  0.34455894507E+03  0.00000000000E+00 0. -1.
          5    1    4    4  501    0 -0.19045635218E+02  0.15924215388E+03  0.37140869491E+02  0.16468859700E+03  0.47000000000E+01 0. -1.
         -5    1    4    4    0  501 -0.32241478450E+02  0.47852857685E+03 -0.10285404222E+03  0.49054067701E+03  0.47000000000E+01 0. -1.
          1    1    1    2  502    0  0.66037539809E+00 -0.53342999824E+02  0.25683016744E+04  0.25688556601E+04  0.00000000000E+00 0. -1.
          1    1    1    2  503    0  0.97320398535E+02 -0.16930291164E+03 -0.24601775706E+04  0.24679158038E+04  0.00000000000E+00 0. -1.
<mgrwt>
<rscale>  0 0.10215702E+03</rscale>
<asrwt>0</asrwt>
<pdfrwt beam="1">  1        2 0.45469374E+00 0.53347087E+02</pdfrwt>
<pdfrwt beam="2">  1        2 0.56880478E+00 0.19562561E+03</pdfrwt>
<totfact> 0.35432540E-01</totfact>
</mgrwt>
</event>
<event>
13    1  0.2101801E-008  0.1830213E+03  0.7546771E-02  0.1337105E+00
          2   -1    0    0  503    0  0.00000000000E+00  0.00000000000E+00  0.27653129366E+04  0.27653129366E+04  0.00000000000E+00 0. -1.
          2   -1    0    0  502    0 -0.00000000000E+00 -0.00000000000E+00 -0.52924266807E+03  0.52924266807E+03  0.00000000000E+00 0. -1.
         24    2    1    2    0    0  0.79408634932E+02  0.24001370992E+03 -0.14863990165E+02  0.26430340534E+03  0.75650774081E+02 0.  0.
         25    2    1    2    0    0 -0.15774314096E+03  0.11147252181E+03  0.44917208764E+03  0.50466826383E+03  0.12500188225E+03 0.  0.
         24    2    1    2    0    0  0.25291027471E+02 -0.10533388828E+03 -0.68908008180E+02  0.15205465627E+03  0.81470490428E+02 0.  0.
        -11    1    5    5    0    0  0.77464909139E+01 -0.10869943221E+03 -0.75973160303E+02  0.13284387743E+03  0.00000000000E+00 0.  1.
         12    1    5    5    0    0  0.17544536557E+02  0.33655439319E+01  0.70651521226E+01  0.19210778835E+02  0.00000000000E+00 0. -1.
        -11    1    3    3    0    0  0.37260399706E+02  0.33065855437E+02 -0.18321272895E+02  0.53078783168E+02  0.00000000000E+00 0.  1.
         12    1    3    3    0    0  0.42148235226E+02  0.20694785449E+03  0.34572827301E+01  0.21122462218E+03  0.00000000000E+00 0. -1.
          5    1    4    4  501    0 -0.88346941473E+02  0.12985420211E+03  0.28550986642E+03  0.32589149988E+03  0.47000000000E+01 0. -1.
         -5    1    4    4    0  501 -0.69396199482E+02 -0.18381680300E+02  0.16366222122E+03  0.17877676395E+03  0.47000000000E+01 0. -1.
          1    1    1    2  502    0  0.71112683839E+02 -0.21903257537E+03 -0.19854357206E+03  0.30405892995E+03  0.00000000000E+00 0. -1.
          1    1    1    2  503    0 -0.18069205286E+02 -0.27119768085E+02  0.20692137513E+04  0.20694703493E+04  0.00000000000E+00 0. -1.
<mgrwt>
<rscale>  0 0.77228882E+02</rscale>
<asrwt>0</asrwt>
<pdfrwt beam="1">  1        2 0.40666366E+00 0.32588004E+02</pdfrwt>
<pdfrwt beam="2">  1        2 0.77829805E-01 0.18302134E+03</pdfrwt>
<totfact> 0.43846283E+01</totfact>
</mgrwt>
</event>
<event>
13    1  0.2101801E-008  0.9312706E+02  0.7546771E-02  0.1385197E+00
          2   -1    0    0  502    0  0.00000000000E+00  0.00000000000E+00  0.34764769946E+04  0.34764769946E+04  0.00000000000E+00 0. -1.
          2   -1    0    0  503    0 -0.00000000000E+00 -0.00000000000E+00 -0.45876111517E+03  0.45876111517E+03  0.00000000000E+00 0. -1.
         24    2    1    2    0    0 -0.22591026895E+03 -0.30581558497E+03 -0.13563086116E+03  0.41144083085E+03  0.79556301838E+02 0.  0.
         25    2    1    2    0    0  0.17209787891E+03  0.39716394272E+03  0.35920378236E+03  0.57620245723E+03  0.12500014850E+03 0.  0.
         24    2    1    2    0    0  0.97201186277E+02 -0.63075928650E+02  0.65939552418E+03  0.67420366360E+03  0.79507731151E+02 0.  0.
        -13    1    3    3    0    0 -0.10722276554E+03 -0.20870897133E+03 -0.91689240415E+02  0.25191878249E+03  0.00000000000E+00 0.  1.
         14    1    3    3    0    0 -0.11868750341E+03 -0.97106613644E+02 -0.43941620749E+02  0.15952204836E+03  0.00000000000E+00 0. -1.
        -13    1    5    5    0    0  0.31593492620E+01 -0.26324869594E+02  0.50933622579E+02  0.57421373685E+02  0.00000000000E+00 0.  1.
         14    1    5    5    0    0  0.94041837015E+02 -0.36751059056E+02  0.60846190160E+03  0.61678228991E+03  0.00000000000E+00 0. -1.
          5    1    4    4  501    0  0.12180498519E+03  0.16466116937E+03  0.11362634785E+03  0.23427076651E+03  0.47000000000E+01 0.  1.
         -5    1    4    4    0  501  0.50292893726E+02  0.23250277335E+03  0.24557743451E+03  0.34193169072E+03  0.47000000000E+01 0.  1.
          1    1    1    2  502    0  0.39489842759E+02  0.16447006449E+02  0.21717774224E+04  0.21721986843E+04  0.00000000000E+00 0. -1.
          1    1    1    2  503    0 -0.82878638997E+02 -0.44719435551E+02 -0.37029988324E+02  0.10119247380E+03  0.00000000000E+00 0. -1.
<mgrwt>
<rscale>  0 0.63117217E+02</rscale>
<asrwt>0</asrwt>
<pdfrwt beam="1">  1        2 0.51124660E+00 0.42777935E+02</pdfrwt>
<pdfrwt beam="2">  1        2 0.67464872E-01 0.93127055E+02</pdfrwt>
<totfact> 0.20858534E+01</totfact>
</mgrwt>
</event>
<event>
13    1  0.2101801E-008  0.1182311E+03  0.7546771E-02  0.1328225E+00
          2   -1    0    0  503    0  0.00000000000E+00  0.00000000000E+00  0.22560127110E+04  0.22560127110E+04  0.00000000000E+00 0. -1.
          2   -1    0    0  502    0 -0.00000000000E+00 -0.00000000000E+00 -0.20140634034E+04  0.20140634034E+04  0.00000000000E+00 0. -1.
         24    2    1    2    0    0 -0.36055516969E+02 -0.26968201684E+03 -0.12055950065E+04  0.12384501588E+04  0.79190186529E+02 0.  0.
         25    2    1    2    0    0  0.15792078997E+03  0.38858821296E+03  0.84487632736E+02  0.44575899447E+03  0.12499258339E+03 0.  0.
         24    2    1    2    0    0 -0.92807547263E+02  0.50480066380E+02 -0.33893648154E+02  0.13696858489E+03  0.80312738293E+02 0.  0.
        -11    1    3    3    0    0  0.50824381453E+01 -0.14002087804E+03 -0.47231036982E+03  0.49265481111E+03  0.00000000000E+00 0.  1.
         12    1    3    3    0    0 -0.41137955114E+02 -0.12966113880E+03 -0.73328463665E+03  0.74579534767E+03  0.00000000000E+00 0. -1.
        -13    1    5    5    0    0 -0.60655100108E+01  0.45391824541E+02 -0.10505417904E+02  0.46984805546E+02  0.00000000000E+00 0.  1.
         14    1    5    5    0    0 -0.86742037252E+02  0.50882418393E+01 -0.23388230250E+02  0.89983779349E+02  0.00000000000E+00 0. -1.
          5    1    4    4  501    0  0.59140433471E-01  0.14547588742E+03  0.72147245888E+01  0.14573050322E+03  0.47000000000E+01 0.  1.
         -5    1    4    4    0  501  0.15786164954E+03  0.24311232555E+03  0.77272908147E+02  0.30002849125E+03  0.47000000000E+01 0.  1.
          1    1    1    2  502    0 -0.16876531191E+02 -0.51849710637E+02 -0.52273923035E+03  0.52557541110E+03  0.00000000000E+00 0. -1.
          1    1    1    2  503    0 -0.12181194551E+02 -0.11753655187E+03  0.19196895598E+04  0.19233229652E+04  0.00000000000E+00 0. -1.
<mgrwt>
<rscale>  0 0.80291992E+02</rscale>
<asrwt>0</asrwt>
<pdfrwt beam="1">  1        2 0.33176658E+00 0.11823109E+03</pdfrwt>
<pdfrwt beam="2">  1        2 0.29618579E+00 0.54527147E+02</pdfrwt>
<totfact> 0.10138721E+01</totfact>
</mgrwt>
</event>
<event>
13    1  0.2101801E-008  0.2580425E+03  0.7546771E-02  0.1316664E+00
          2   -1    0    0  502    0  0.00000000000E+00  0.00000000000E+00  0.15981191098E+04  0.15981191098E+04  0.00000000000E+00 0. -1.
          2   -1    0    0  503    0 -0.00000000000E+00 -0.00000000000E+00 -0.38597981349E+04  0.38597981349E+04  0.00000000000E+00 0. -1.
         24    2    1    2    0    0 -0.12333799667E+03  0.58138790091E+02 -0.59283246637E+03  0.61429736509E+03  0.85548461367E+02 0.  0.
         25    2    1    2    0    0  0.46096798938E+03 -0.17691076986E+03  0.40524253126E+03  0.65087280650E+03  0.12499997350E+03 0.  0.
         24    2    1    2    0    0 -0.15961707507E+03 -0.16306687561E+03 -0.22151698628E+03  0.32890300548E+03  0.83898720080E+02 0.  0.
        -11    1    5    5    0    0  0.62481477504E+01  0.22679984095E+01 -0.15565532718E+00  0.66488642396E+01  0.00000000000E+00 0.  1.
         12    1    5    5    0    0 -0.16586522282E+03 -0.16533487402E+03 -0.22136133095E+03  0.32225414124E+03  0.00000000000E+00 0. -1.
        -13    1    3    3    0    0 -0.35898116157E+02  0.63639778869E+02 -0.25133848345E+03  0.26174363309E+03  0.00000000000E+00 0.  1.
         14    1    3    3    0    0 -0.87439880513E+02 -0.55009887773E+01 -0.34149398292E+03  0.35255373201E+03  0.00000000000E+00 0. -1.
          5    1    4    4  501    0  0.27531058269E+03 -0.16470323820E+03  0.28614095923E+03  0.42990907430E+03  0.47000000000E+01 0. -1.
         -5    1    4    4    0  501  0.18565740669E+03 -0.12207531657E+02  0.11910157203E+03  0.22096373220E+03  0.47000000000E+01 0. -1.
          1    1    1    2  502    0 -0.21211431025E+02  0.17800909002E+02  0.99719481093E+03  0.99757921395E+03  0.00000000000E+00 0. -1.
          1    1    1    2  503    0 -0.15680148662E+03  0.26403794637E+03 -0.28497669147E+04  0.28662648537E+04  0.00000000000E+00 0. -1.
<mgrwt>
<rscale>  0 0.84530954E+02</rscale>
<asrwt>0</asrwt>
<pdfrwt beam="1">  1        2 0.23501752E+00 0.27691103E+02</pdfrwt>
<pdfrwt beam="2">  1        2 0.56761737E+00 0.25804253E+03</pdfrwt>
<totfact> 0.19122334E+00</totfact>
</mgrwt>
</event>
<event>
13    1  0.2101801E-008  0.4218942E+03  0.7546771E-02  0.1159694E+00
          2   -1    0    0  502    0  0.00000000000E+00  0.00000000000E+00  0.12889003897E+04  0.12889003897E+04  0.00000000000E+00 0. -1.
          2   -1    0    0  503    0 -0.00000000000E+00 -0.00000000000E+00 -0.33643111764E+04  0.33643111764E+04  0.00000000000E+00 0. -1.
         24    2    1    2    0    0 -0.93247647566E+02  0.59439704621E+02 -0.35176203339E+03  0.37751023565E+03  0.80927421944E+02 0.  0.
         25    2    1    2    0    0 -0.31727886714E+03  0.85216295561E+02 -0.10833791297E+04  0.11389683131E+04  0.12494311856E+03 0.  0.
         24    2    1    2    0    0  0.24399471511E+02  0.18716583729E+03 -0.40206321941E+02  0.20942336308E+03  0.81333952468E+02 0.  0.
        -11    1    5    5    0    0  0.16131388376E+02  0.18617535556E+03 -0.52923417171E+02  0.19422248272E+03  0.00000000000E+00 0.  1.
         12    1    5    5    0    0  0.82680831356E+01  0.99048172853E+00  0.12717095231E+02  0.15200880366E+02  0.00000000000E+00 0. -1.
        -13    1    3    3    0    0 -0.51000550650E+02 -0.39715876701E+01 -0.21452188660E+03  0.22053677586E+03  0.00000000000E+00 0.  1.
         14    1    3    3    0    0 -0.42247096915E+02  0.63411292291E+02 -0.13724014679E+03  0.15697345979E+03  0.00000000000E+00 0. -1.
          5    1    4    4  501    0 -0.32462174179E+03  0.70513655115E+02 -0.10523042590E+04  0.11035025121E+04  0.47000000000E+01 0.  1.
         -5    1    4    4    0  501  0.73428746521E+01  0.14702640446E+02 -0.31074870746E+02  0.35465800937E+02  0.47000000000E+01 0.  1.
          1    1    1    2  502    0  0.33201234073E+03 -0.26712452733E+03  0.11235438928E+04  0.12016399571E+04  0.00000000000E+00 0. -1.
          1    1    1    2  503    0  0.54114702469E+02 -0.64697310135E+02 -0.17236071944E+04  0.17256696971E+04  0.00000000000E+00 0. -1.
<mgrwt>
<rscale>  0 0.18863941E+03</rscale>
<asrwt>0</asrwt>
<pdfrwt beam="1">  1        2 0.18954417E+00 0.42189421E+03</pdfrwt>
<pdfrwt beam="2">  1        2 0.49475165E+00 0.84345379E+02</pdfrwt>
<totfact> 0.54767492E+00</totfact>
</mgrwt>
</event>
<event>
13    1  0.2101801E-008  0.1530061E+03  0.7546771E-02  0.1234101E+00
          2   -1    0    0  503    0  0.00000000000E+00  0.00000000000E+00  0.18333226104E+04  0.18333226104E+04  0.00000000000E+00 0. -1.
          2   -1    0    0  502    0 -0.00000000000E+00 -0.00000000000E+00 -0.17586364086E+04  0.17586364086E+04  0.00000000000E+00 0. -1.
         24    2    1    2    0    0 -0.72321248150E+02  0.33583310891E+02  0.37258846113E+02  0.11983174313E+03  0.81321727377E+02 0.  0.
         25    2    1    2    0    0  0.74385429779E+02 -0.18325010919E+03 -0.14724829219E+03  0.27644129242E+03  0.12499573561E+03 0.  0.
         24    2    1    2    0    0  0.76232513862E+02 -0.14351270468E+03  0.22725209135E+03  0.29185420639E+03  0.84427911202E+02 0.  0.
        -13    1    3    3    0    0 -0.64782459930E+02  0.54874510713E+02  0.44831529737E+02  0.96009609410E+02  0.00000000000E+00 0.  1.
         14    1    3    3    0    0 -0.75387882191E+01 -0.21291199822E+02 -0.75726836241E+01  0.23822133719E+02  0.00000000000E+00 0. -1.
        -13    1    5    5    0    0  0.26232709789E+02 -0.17199370060E+01  0.11058747921E+02  0.28520328746E+02  0.00000000000E+00 0.  1.
         14    1    5    5    0    0  0.49999804073E+02 -0.14179276767E+03  0.21619334343E+03  0.26333387764E+03  0.00000000000E+00 0. -1.
          5    1    4    4  501    0 -0.27109907471E+02 -0.30374103841E+02  0.21619471853E+00  0.40983777369E+02  0.47000000000E+01 0. -1.
         -5    1    4    4    0  501  0.10149533725E+03 -0.15287600535E+03 -0.14746448691E+03  0.23545751505E+03  0.47000000000E+01 0. -1.
          1    1    1    2  502    0  0.75514547012E+02  0.70249703462E+02 -0.14585479707E+04  0.14621900186E+04  0.00000000000E+00 0. -1.
          1    1    1    2  503    0 -0.15381124250E+03  0.22292979951E+03  0.14159715273E+04  0.14416417585E+04  0.00000000000E+00 0. -1.
<mgrwt>
<rscale>  0 0.12562149E+03</rscale>
<asrwt>0</asrwt>
<pdfrwt beam="1">  1        2 0.26960627E+00 0.15300610E+03</pdfrwt>
<pdfrwt beam="2">  1        2 0.25862300E+00 0.10313810E+03</pdfrwt>
<totfact> 0.19703853E+01</totfact>
</mgrwt>
</event>
<event>
13    1  0.2101801E-008  0.1342461E+03  0.7546771E-02  0.1276068E+00
         -1   -1    0    0    0  501 -0.00000000000E+00  0.00000000000E+00  0.52649633673E+03  0.52649633673E+03  0.00000000000E+00 0.  1.
          2   -1    0    0  503    0  0.00000000000E+00 -0.00000000000E+00 -0.71957219989E+03  0.71957219989E+03  0.00000000000E+00 0. -1.
         24    2    1    2    0    0  0.10484509639E+03  0.23272924641E+00  0.28462136117E+03  0.31324994746E+03  0.78253830238E+02 0.  0.
         25    2    1    2    0    0  0.66799373413E+02  0.16138999475E+03 -0.27503642562E+03  0.34895365319E+03  0.12495891312E+03 0.  0.
         24    2    1    2    0    0 -0.74422386733E+02  0.34062074870E+02 -0.11761488685E+03  0.16485700883E+03  0.81520887869E+02 0.  0.
        -11    1    3    3    0    0  0.52520305401E+02  0.72563415991E+01  0.23461911341E+03  0.24053516448E+03  0.00000000000E+00 0.  1.
         12    1    3    3    0    0  0.52324790990E+02 -0.70236123527E+01  0.50002247759E+02  0.72714782978E+02  0.00000000000E+00 0. -1.
        -13    1    5    5    0    0 -0.27538879986E+02 -0.26971848150E+02 -0.38262775637E+02  0.54313078563E+02  0.00000000000E+00 0.  1.
         14    1    5    5    0    0 -0.46883506747E+02  0.61033923020E+02 -0.79352111215E+02  0.11054393026E+03  0.00000000000E+00 0. -1.
          5    1    4    4  502    0  0.38125369081E+02  0.10275117771E+01 -0.11208674945E+03  0.11849105008E+03  0.47000000000E+01 0.  1.
         -5    1    4    4    0  502  0.28674004332E+02  0.16036248297E+03 -0.16294967617E+03  0.23046260311E+03  0.47000000000E+01 0.  1.
          1    1    1    2  503    0 -0.84380180040E+02 -0.11919820866E+03 -0.21958480482E+03  0.26371521427E+03  0.00000000000E+00 0. -1.
         -2    1    1    2    0  501 -0.12841903030E+02 -0.76486590206E+02  0.13453889296E+03  0.15529271288E+03  0.00000000000E+00 0.  1.
<mgrwt>
<rscale>  0 0.10203795E+03</rscale>
<asrwt>0</asrwt>
<pdfrwt beam="2">  1        2 0.10581944E+00 0.13424605E+03</pdfrwt>
<pdfrwt beam="1">  1       -1 0.77425932E-01 0.77557159E+02</pdfrwt>
<totfact> 0.91303250E+01</totfact>
</mgrwt>
</event>
<event>
13    1  0.2101801E-008  0.1820494E+03  0.7546771E-02  0.1322609E+00
          2   -1    0    0  502    0  0.00000000000E+00  0.00000000000E+00  0.92670178890E+03  0.92670178890E+03  0.00000000000E+00 0. -1.
          2   -1    0    0  503    0 -0.00000000000E+00 -0.00000000000E+00 -0.55128833144E+03  0.55128833144E+03  0.00000000000E+00 0. -1.
         24    2    1    2    0    0 -0.30214542561E+03 -0.18324987269E+03 -0.32314422545E+03  0.48546821363E+03  0.79905080867E+02 0.  0.
         25    2    1    2    0    0  0.11178257794E+03  0.26428381941E+03  0.44991317954E+03  0.54807662810E+03  0.12499935686E+03 0.  0.
         24    2    1    2    0    0 -0.84439499579E+01 -0.48572572165E+01  0.80818670107E+02  0.11305381404E+03  0.78451349214E+02 0.  0.
        -13    1    3    3    0    0 -0.31260465736E+02  0.59971721961E+01 -0.26962316497E+02  0.41715096827E+02  0.00000000000E+00 0.  1.
         14    1    3    3    0    0 -0.27088495987E+03 -0.18924704489E+03 -0.29618190895E+03  0.44375311680E+03  0.00000000000E+00 0. -1.
        -13    1    5    5    0    0 -0.35319758109E+02 -0.10532274585E+02  0.11687443909E+02  0.38665365199E+02  0.00000000000E+00 0.  1.
         14    1    5    5    0    0  0.26875808152E+02  0.56750173690E+01  0.69131226198E+02  0.74388448845E+02  0.00000000000E+00 0. -1.
          5    1    4    4  501    0  0.40267157852E+02  0.22882512547E+03  0.31892394837E+03  0.39460987936E+03  0.47000000000E+01 0.  1.
         -5    1    4    4    0  501  0.71515420088E+02  0.35458693942E+02  0.13098923117E+03  0.15346674874E+03  0.47000000000E+01 0.  1.
          1    1    1    2  502    0  0.28833319674E+02 -0.23534428391E+02  0.14770118452E+03  0.15231831653E+03  0.00000000000E+00 0. -1.
          1    1    1    2  503    0  0.16997347795E+03 -0.52642261108E+02  0.20124648742E+02  0.17907314804E+03  0.00000000000E+00 0. -1.
<mgrwt>
<rscale>  0 0.82314262E+02</rscale>
<asrwt>0</asrwt>
<pdfrwt beam="1">  1        2 0.13627968E+00 0.37218673E+02</pdfrwt>
<pdfrwt beam="2">  1        2 0.81071813E-01 0.18204942E+03</pdfrwt>
<totfact> 0.31106636E+02</totfact>
</mgrwt>
</event>
<event>
13    1  0.2101801E-008  0.5052899E+02  0.7546771E-02  0.1450010E+00
          2   -1    0    0  502    0  0.00000000000E+00  0.00000000000E+00  0.22411085838E+04  0.22411085838E+04  0.00000000000E+00 0. -1.
          2   -1    0    0  503    0 -0.00000000000E+00 -0.00000000000E+00 -0.19429300255E+04  0.19429300255E+04  0.00000000000E+00 0. -1.
         24    2    1    2    0    0  0.70150480831E-01  0.66403068481E+02 -0.10758658640E+04  0.10808820736E+04  0.80058273722E+02 0.  0.
         25    2    1    2    0    0  0.12119709916E+03 -0.14263984305E+03  0.35350967062E+02  0.22783789211E+03  0.12500221013E+03 0.  0.
         24    2    1    2    0    0 -0.10037308525E+03  0.61027838717E+02 -0.39927450135E+03  0.42428925069E+03  0.82474768758E+02 0.  0.
        -11    1    3    3    0    0  0.25533657033E+02 -0.65062485636E+01 -0.31898996618E+03  0.32007639312E+03  0.00000000000E+00 0.  1.
         12    1    3    3    0    0 -0.25463506552E+02  0.72909317045E+02 -0.75687589783E+03  0.76080568045E+03  0.00000000000E+00 0. -1.
        -13    1    5    5    0    0 -0.77086413894E+02  0.30902077897E+01 -0.17042046779E+03  0.18706950695E+03  0.00000000000E+00 0.  1.
         14    1    5    5    0    0 -0.23286671359E+02  0.57937630927E+02 -0.22885403357E+03  0.23721974374E+03  0.00000000000E+00 0. -1.
          5    1    4    4  501    0  0.11820814324E+03 -0.52755895035E+02 -0.39213153319E+01  0.12959095764E+03  0.47000000000E+01 0.  1.
         -5    1    4    4    0  501  0.29889559247E+01 -0.89883948015E+02  0.39272282394E+02  0.98246934470E+02  0.47000000000E+01 0.  1.
          1    1    1    2  502    0  0.22410134822E+02  0.42219242331E+02  0.20923978334E+04  0.20929437096E+04  0.00000000000E+00 0. -1.
          1    1    1    2  503    0 -0.43304299210E+02 -0.27010306479E+02 -0.35442987679E+03  0.35808568325E+03  0.00000000000E+00 0. -1.
<mgrwt>
<rscale>  0 0.49144691E+02</rscale>
<asrwt>0</asrwt>
<pdfrwt beam="1">  1        2 0.32957479E+00 0.47798311E+02</pdfrwt>
<pdfrwt beam="2">  1        2 0.28572500E+00 0.50528994E+02</pdfrwt>
<totfact> 0.12516242E+01</totfact>
</mgrwt>
</event>
<event>
13    1  0.2101801E-008  0.1610534E+03  0.7546771E-02  0.1288769E+00
          2   -1    0    0  503    0  0.00000000000E+00  0.00000000000E+00  0.20047718842E+04  0.20047718842E+04  0.00000000000E+00 0. -1.
          2   -1    0    0  502    0 -0.00000000000E+00 -0.00000000000E+00 -0.27507244559E+04  0.27507244559E+04  0.00000000000E+00 0. -1.
         24    2    1    2    0    0  0.67441459986E+02 -0.43873698247E+02 -0.86454502070E+02  0.14215895903E+03  0.79129872870E+02 0.  0.
         25    2    1    2    0    0  0.49974009235E+02  0.25680441987E+03 -0.15543526713E+02  0.29036582738E+03  0.12499920329E+03 0.  0.
         24    2    1    2    0    0 -0.17177439774E+03 -0.12480075366E+03 -0.76688874961E+02  0.24083979266E+03  0.83910370946E+02 0.  0.
        -11    1    3    3    0    0  0.43010027349E+02 -0.61613136959E+02 -0.35902152624E+02  0.83276681379E+02  0.00000000000E+00 0.  1.
         12    1    3    3    0    0  0.24431432637E+02  0.17739438711E+02 -0.50552349446E+02  0.58882277648E+02  0.00000000000E+00 0. -1.
        -11    1    5    5    0    0 -0.52505283250E+02 -0.28479515782E+02  0.15811260448E+02  0.61789024473E+02  0.00000000000E+00 0.  1.
         12    1    5    5    0    0 -0.11926911449E+03 -0.96321237874E+02 -0.92500135409E+02  0.17905076818E+03  0.00000000000E+00 0. -1.
          5    1    4    4  501    0  0.76159595618E+02  0.21177820764E+03 -0.46125050086E+02  0.22978229584E+03  0.47000000000E+01 0. -1.
         -5    1    4    4    0  501 -0.26185586383E+02  0.45026212238E+02  0.30581523373E+02  0.60583531546E+02  0.47000000000E+01 0. -1.
          1    1    1    2  502    0  0.85073748370E+02 -0.13651972270E+03 -0.23214474788E+04  0.23270138750E+04  0.00000000000E+00 0. -1.
          1    1    1    2  503    0 -0.30714819853E+02  0.48389754725E+02  0.17541818108E+04  0.17551178860E+04  0.00000000000E+00 0. -1.
<mgrwt>
<rscale>  0 0.96076630E+02</rscale>
<asrwt>0</asrwt>
<pdfrwt beam="1">  1        2 0.29481940E+00 0.57314645E+02</pdfrwt>
<pdfrwt beam="2">  1        2 0.40451830E+00 0.16105341E+03</pdfrwt>
<totfact> 0.55119834E+00</totfact>
</mgrwt>
</event>
<event>
13    1  0.2101801E-008  0.1644552E+03  0.7546771E-02  0.1189165E+00
          2   -1    0    0  503    0  0.00000000000E+00  0.00000000000E+00  0.24098948123E+04  0.24098948123E+04  0.00000000000E+00 0. -1.
          2   -1    0    0  502    0 -0.00000000000E+00 -0.00000000000E+00 -0.24105422552E+04  0.24105422552E+04  0.00000000000E+00 0. -1.
         24    2    1    2    0    0  0.94255154150E+01 -0.22822097482E+02 -0.16220939713E+03  0.18223131969E+03  0.79288567169E+02 0.  0.
         25    2    1    2    0    0  0.79957738241E+02 -0.35511611993E+03  0.62833940325E+02  0.38996321379E+03  0.12499002165E+03 0.  0.
         24    2    1    2    0    0  0.16052508650E+02  0.62072461772E+02  0.71776579900E+03  0.72516593352E+03  0.81038357442E+02 0.  0.
        -13    1    5    5    0    0 -0.44184673841E+00 -0.14046161385E+02  0.31474894323E+02  0.34469680167E+02  0.00000000000E+00 0.  1.
         14    1    5    5    0    0  0.16494355389E+02  0.76118623157E+02  0.68629090468E+03  0.69069625335E+03  0.00000000000E+00 0. -1.
        -13    1    3    3    0    0 -0.56807561852E+01 -0.48391185562E+02 -0.69472592063E+02  0.84855281974E+02  0.00000000000E+00 0.  1.
         14    1    3    3    0    0  0.15106271600E+02  0.25569088080E+02 -0.92736805067E+02  0.97376037714E+02  0.00000000000E+00 0. -1.
          5    1    4    4  501    0  0.77627143647E+02 -0.36403471569E+03  0.67982698334E+02  0.37840584685E+03  0.47000000000E+01 0. -1.
         -5    1    4    4    0  501  0.23305945943E+01  0.89185957592E+01 -0.51487580092E+01  0.11557366937E+02  0.47000000000E+01 0. -1.
          1    1    1    2  502    0 -0.26004117281E+03  0.16820919191E+03 -0.20515017997E+04  0.20747470637E+04  0.00000000000E+00 0. -1.
          1    1    1    2  503    0  0.15460541050E+03  0.14765656374E+03  0.14324640147E+04  0.14483295368E+04  0.00000000000E+00 0. -1.
<mgrwt>
<rscale>  0 0.15958589E+03</rscale>
<asrwt>0</asrwt>
<pdfrwt beam="1">  1        2 0.35439629E+00 0.16445515E+03</pdfrwt>
<pdfrwt beam="2">  1        2 0.35449151E+00 0.15486081E+03</pdfrwt>
<totfact> 0.46614647E+00</totfact>
</mgrwt>
</event>
<event>
13    1  0.2101801E-008  0.6994458E+02  0.7546771E-02  0.1443934E+00
          2   -1    0    0  502    0  0.00000000000E+00  0.00000000000E+00  0.22724077823E+04  0.22724077823E+04  0.00000000000E+00 0. -1.
          2   -1    0    0  503    0 -0.00000000000E+00 -0.00000000000E+00 -0.35401517898E+04  0.35401517898E+04  0.00000000000E+00 0. -1.
         24    2    1    2    0    0  0.49369472442E+03  0.52206197360E+03 -0.13862399586E+04  0.15634716987E+04  0.80618514360E+02 0.  0.
         25    2    1    2    0    0 -0.55636992489E+03 -0.45944642817E+03  0.59622072305E+02  0.73472363788E+03  0.12500207546E+03 0.  0.
         24    2    1    2    0    0  0.12400639486E+03 -0.10720265682E+03  0.56129349179E+03  0.59149977949E+03  0.89171798330E+02 0.  0.
        -11    1    5    5    0    0  0.29734131932E+02  0.42012757337E+00  0.21145339934E+03  0.21353415464E+03  0.00000000000E+00 0.  1.
         12    1    5    5    0    0  0.94272262925E+02 -0.10762278439E+03  0.34984009245E+03  0.37796562485E+03  0.00000000000E+00 0. -1.
        -13    1    3    3    0    0  0.32176472319E+03  0.39316368619E+03 -0.98649221702E+03  0.11096292694E+04  0.00000000000E+00 0.  1.
         14    1    3    3    0    0  0.17193000124E+03  0.12889828741E+03 -0.39974774154E+03  0.45384242936E+03  0.00000000000E+00 0. -1.
          5    1    4    4  501    0 -0.14615877729E+03 -0.66006179027E+02 -0.16292782734E+02  0.16126608018E+03  0.47000000000E+01 0.  1.
         -5    1    4    4    0  501 -0.41021114760E+03 -0.39344024914E+03  0.75914855039E+02  0.57345755770E+03  0.47000000000E+01 0.  1.
          1    1    1    2  502    0 -0.69316858616E+02  0.93629158112E+01  0.12090210661E+04  0.12110427033E+04  0.00000000000E+00 0. -1.
          1    1    1    2  503    0  0.79856642269E+01  0.35224195582E+02 -0.17114406791E+04  0.17118217526E+04  0.00000000000E+00 0. -1.
<mgrwt>
<rscale>  0 0.50261944E+02</rscale>
<asrwt>0</asrwt>
<pdfrwt beam="1">  1        2 0.33417762E+00 0.69944579E+02</pdfrwt>
<pdfrwt beam="2">  1        2 0.52061055E+00 0.36118067E+02</pdfrwt>
<totfact> 0.19316040E+00</totfact>
</mgrwt>
</event>
<event>
13    1  0.2101801E-008  0.1299309E+03  0.7546771E-02  0.1324171E+00
          2   -1    0    0  503    0  0.00000000000E+00  0.00000000000E+00  0.84103361862E+03  0.84103361862E+03  0.00000000000E+00 0. -1.
          2   -1    0    0  502    0 -0.00000000000E+00 -0.00000000000E+00 -0.18968150130E+04  0.18968150130E+04  0.00000000000E+00 0. -1.
         24    2    1    2    0    0 -0.19802397870E+03  0.84004652946E+02 -0.94288027403E+03  0.97037374187E+03  0.79572042258E+02 0.  0.
         25    2    1    2    0    0  0.13908992256E+02  0.32317632518E+02  0.46608161093E+02  0.13796954810E+03  0.12500154433E+03 0.  0.
         24    2    1    2    0    0  0.47143916489E+02 -0.11326207966E+02  0.18340611967E+03  0.20712257041E+03  0.83133161804E+02 0.  0.
        -11    1    5    5    0    0  0.15872081207E+01  0.32761845678E+02  0.59665767735E+02  0.68087161794E+02  0.00000000000E+00 0.  1.
         12    1    5    5    0    0  0.45556708369E+02 -0.44088053644E+02  0.12374035193E+03  0.13903540861E+03  0.00000000000E+00 0. -1.
        -13    1    3    3    0    0 -0.18449514642E+03  0.74133351337E+02 -0.72256030084E+03  0.74941817511E+03  0.00000000000E+00 0.  1.
         14    1    3    3    0    0 -0.13528832273E+02  0.98713016086E+01 -0.22031997318E+03  0.22095556676E+03  0.00000000000E+00 0. -1.
          5    1    4    4  501    0 -0.17583173477E+02  0.74331470712E+02  0.34149510796E+02  0.83801041851E+02  0.47000000000E+01 0.  1.
         -5    1    4    4    0  501  0.31492165733E+02 -0.42013838194E+02  0.12458650297E+02  0.54168506252E+02  0.47000000000E+01 0.  1.
          1    1    1    2  502    0  0.51002247623E+02  0.66122377698E+01 -0.87268614158E+03  0.87420023602E+03  0.00000000000E+00 0. -1.
          1    1    1    2  503    0  0.85968822328E+02 -0.11160831527E+03  0.52977074048E+03  0.54818253521E+03  0.00000000000E+00 0. -1.
<mgrwt>
<rscale>  0 0.81744896E+02</rscale>
<asrwt>0</asrwt>
<pdfrwt beam="1">  1        2 0.12368141E+00 0.12993091E+03</pdfrwt>
<pdfrwt beam="2">  1        2 0.27894339E+00 0.51429087E+02</pdfrwt>
<totfact> 0.62092680E+01</totfact>
</mgrwt>
</event>
<event>
13    1  0.2101801E-008  0.3838441E+02  0.7546771E-02  0.1559154E+00
          2   -1    0    0  502    0  0.00000000000E+00  0.00000000000E+00  0.22096147762E+04  0.22096147762E+04  0.00000000000E+00 0. -1.
          2   -1    0    0  503    0 -0.00000000000E+00 -0.00000000000E+00 -0.39708210708E+03  0.39708210708E+03  0.00000000000E+00 0. -1.
         24    2    1    2    0    0 -0.15785993198E+03  0.10320471567E+03 -0.25401829260E+03  0.32644784662E+03  0.80448319625E+02 0.  0.
         25    2    1    2    0    0  0.11691144202E+03 -0.32139553781E+02  0.49912098270E+03  0.52862817027E+03  0.12499900339E+03 0.  0.
         24    2    1    2    0    0  0.10536590030E+03 -0.81710406580E+02  0.89984677542E+02  0.17939800811E+03  0.79421909016E+02 0.  0.
        -11    1    5    5    0    0 -0.10558478973E+02 -0.30285606500E+01 -0.28249629640E+01  0.11341696239E+02  0.00000000000E+00 0.  1.
         12    1    5    5    0    0  0.11592437927E+03 -0.78681845930E+02  0.92809640506E+02  0.16805631187E+03  0.00000000000E+00 0. -1.
        -13    1    3    3    0    0 -0.35904303781E+02  0.57230942172E+02 -0.13015643063E+03  0.14664650083E+03  0.00000000000E+00 0.  1.
         14    1    3    3    0    0 -0.12195562820E+03  0.45973773494E+02 -0.12386186197E+03  0.17980134579E+03  0.00000000000E+00 0. -1.
          5    1    4    4  501    0  0.89100759630E+02 -0.67807256465E+02  0.23181562503E+03  0.25748270505E+03  0.47000000000E+01 0.  1.
         -5    1    4    4    0  501  0.27810682387E+02  0.35667702684E+02  0.26730535767E+03  0.27114546522E+03  0.47000000000E+01 0.  1.
          1    1    1    2  502    0 -0.26444643520E+02  0.13808650200E+02  0.15170039302E+04  0.15172972425E+04  0.00000000000E+00 0. -1.
          1    1    1    2  503    0 -0.37972766815E+02 -0.31634055044E+01 -0.39558628741E+02  0.54925615717E+02  0.00000000000E+00 0. -1.
<mgrwt>
<rscale>  0 0.33839558E+02</rscale>
<asrwt>0</asrwt>
<pdfrwt beam="1">  1        2 0.32494334E+00 0.29832834E+02</pdfrwt>
<pdfrwt beam="2">  1        2 0.58394428E-01 0.38384408E+02</pdfrwt>
<totfact> 0.11107528E+02</totfact>
</mgrwt>
</event>
<event>
13    1  0.2101801E-008  0.7629678E+02  0.7546771E-02  0.1414434E+00
          2   -1    0    0  502    0  0.00000000000E+00  0.00000000000E+00  0.33068070068E+03  0.33068070068E+03  0.00000000000E+00 0. -1.
          2   -1    0    0  503    0 -0.00000000000E+00 -0.00000000000E+00 -0.39290271177E+04  0.39290271177E+04  0.00000000000E+00 0. -1.
         24    2    1    2    0    0  0.15152080988E+02  0.27863973848E+02 -0.16005744247E+04  0.16029254292E+04  0.80780295494E+02 0.  0.
         25    2    1    2    0    0 -0.88223472011E+02  0.47330300382E+01 -0.19496477404E+03  0.24787664868E+03  0.12500314898E+03 0.  0.
         24    2    1    2    0    0  0.18564884200E+02  0.26764106099E+02 -0.32511451162E+03  0.33616250961E+03  0.79024141259E+02 0.  0.
        -11    1    5    5    0    0 -0.41411793924E+01  0.47603805888E+02 -0.12751523041E+03  0.13617417409E+03  0.00000000000E+00 0.  1.
         12    1    5    5    0    0  0.22706063592E+02 -0.20839699789E+02 -0.19759928121E+03  0.19998833552E+03  0.00000000000E+00 0. -1.
        -11    1    3    3    0    0 -0.25037454341E+02  0.19540185141E+02 -0.11622086041E+04  0.11626424783E+04  0.00000000000E+00 0.  1.
         12    1    3    3    0    0  0.40189535329E+02  0.83237887075E+01 -0.43836582055E+03  0.44028295088E+03  0.00000000000E+00 0. -1.
          5    1    4    4  501    0 -0.52268303920E+02  0.19438060656E+01 -0.31120392124E+01  0.52607307142E+02  0.47000000000E+01 0.  1.
         -5    1    4    4    0  501 -0.35955168092E+02  0.27892239726E+01 -0.19185273483E+03  0.19526934153E+03  0.47000000000E+01 0.  1.
          1    1    1    2  502    0  0.38453455115E+02  0.15394240848E+02  0.29525569865E+03  0.29814690749E+03  0.00000000000E+00 0. -1.
          1    1    1    2  503    0  0.16053051708E+02 -0.74755350833E+02 -0.17729484053E+04  0.17745963234E+04  0.00000000000E+00 0. -1.
<mgrwt>
<rscale>  0 0.56216049E+02</rscale>
<asrwt>0</asrwt>
<pdfrwt beam="1">  1        2 0.48629521E-01 0.41420416E+02</pdfrwt>
<pdfrwt beam="2">  1        2 0.57779803E+00 0.76296776E+02</pdfrwt>
<totfact> 0.13809898E+01</totfact>
</mgrwt>
</event>
<event>
13    1  0.2101801E-008  0.5664324E+02  0.7546771E-02  0.1415284E+00
          2   -1    0    0  502    0  0.00000000000E+00  0.00000000000E+00  0.77513432368E+03  0.77513432368E+03  0.00000000000E+00 0. -1.
          2   -1    0    0  503    0 -0.00000000000E+00 -0.00000000000E+00 -0.22287199319E+04  0.22287199319E+04  0.00000000000E+00 0. -1.
         24    2    1    2    0    0  0.37781067315E+02 -0.25755926589E+02 -0.13037294093E+04  0.13071241439E+04  0.82294459374E+02 0.  0.
         25    2    1    2    0    0  0.48696442458E+02 -0.66438612482E+01  0.26001980915E+03  0.29266122409E+03  0.12499922614E+03 0.  0.
         24    2    1    2    0    0 -0.54273561897E+02  0.10088081772E+03 -0.36027416893E+03  0.38609106871E+03  0.78398199215E+02 0.  0.
        -13    1    3    3    0    0  0.13036672433E+02 -0.22639347377E+02 -0.10728949518E+03  0.11042432093E+03  0.00000000000E+00 0.  1.
         14    1    3    3    0    0  0.24744394882E+02 -0.31165792121E+01 -0.11964399142E+04  0.11966998230E+04  0.00000000000E+00 0. -1.
        -13    1    5    5    0    0 -0.21204859806E+02  0.69486940380E+01 -0.16880512109E+03  0.17027360140E+03  0.00000000000E+00 0.  1.
         14    1    5    5    0    0 -0.33068702091E+02  0.93932123686E+02 -0.19146904784E+03  0.21581746732E+03  0.00000000000E+00 0. -1.
          5    1    4    4  501    0  0.55983540460E+02  0.18235737127E+02  0.25967880416E+03  0.26631160365E+03  0.47000000000E+01 0.  1.
         -5    1    4    4    0  501 -0.72870980028E+01 -0.24879598375E+02  0.34100498923E+00  0.26349620434E+02  0.47000000000E+01 0.  1.
          1    1    1    2  502    0 -0.53886159812E+02 -0.17472210880E+02  0.48108287008E+03  0.48440656917E+03  0.00000000000E+00 0. -1.
          1    1    1    2  503    0  0.21682211936E+02 -0.51008819007E+02 -0.53068470922E+03  0.53357124973E+03  0.00000000000E+00 0. -1.
<mgrwt>
<rscale>  0 0.56031206E+02</rscale>
<asrwt>0</asrwt>
<pdfrwt beam="1">  1        2 0.11399034E+00 0.56643238E+02</pdfrwt>
<pdfrwt beam="2">  1        2 0.32775293E+00 0.55425788E+02</pdfrwt>
<totfact> 0.48912228E+01</totfact>
</mgrwt>
</event>
<event>
13    1  0.2101801E-008  0.1374169E+03  0.7546771E-02  0.1332882E+00
          2   -1    0    0  503    0  0.00000000000E+00  0.00000000000E+00  0.11243498981E+04  0.11243498981E+04  0.00000000000E+00 0. -1.
          2   -1    0    0  502    0 -0.00000000000E+00 -0.00000000000E+00 -0.66603516596E+03  0.66603516596E+03  0.00000000000E+00 0. -1.
         24    2    1    2    0    0  0.12228494623E+03 -0.98972025782E+01 -0.56648191513E+02  0.15713474008E+03  0.80191933789E+02 0.  0.
         25    2    1    2    0    0  0.21149678190E+03 -0.13585823408E+03  0.79887934243E+03  0.84677107764E+03  0.12499882257E+03 0.  0.
         24    2    1    2    0    0 -0.99254389981E+02  0.13330789956E+03 -0.19025083962E+03  0.26492636430E+03  0.79800792653E+02 0.  0.
        -13    1    5    5    0    0 -0.10488221752E+03  0.99041223045E+02 -0.12442318273E+03  0.19050084465E+03  0.00000000000E+00 0.  1.
         14    1    5    5    0    0  0.56278275374E+01  0.34266676514E+02 -0.65827656894E+02  0.74425519644E+02  0.00000000000E+00 0. -1.
        -13    1    3    3    0    0 -0.73652533757E+01 -0.12868074585E+02  0.17093628099E+01  0.14925020001E+02  0.00000000000E+00 0.  1.
         14    1    3    3    0    0  0.12965019961E+03  0.29708720063E+01 -0.58357554323E+02  0.14220972008E+03  0.00000000000E+00 0. -1.
          5    1    4    4  501    0  0.15291971954E+03 -0.67062030121E+02  0.33718201679E+03  0.37629185342E+03  0.47000000000E+01 0. -1.
         -5    1    4    4    0  501  0.58577062359E+02 -0.68796203959E+02  0.46169732564E+03  0.47047922421E+03  0.47000000000E+01 0. -1.
          1    1    1    2  502    0 -0.19464392503E+03 -0.84630693786E+01 -0.27370624447E+03  0.33596575623E+03  0.00000000000E+00 0. -1.
          1    1    1    2  503    0 -0.39883413115E+02  0.20910606478E+02  0.18004066529E+03  0.18558712580E+03  0.00000000000E+00 0. -1.
<mgrwt>
<rscale>  0 0.78665420E+02</rscale>
<asrwt>0</asrwt>
<pdfrwt beam="1">  1        2 0.16534557E+00 0.45032656E+02</pdfrwt>
<pdfrwt beam="2">  1        2 0.97946348E-01 0.13741691E+03</pdfrwt>
<totfact> 0.19516131E+02</totfact>
</mgrwt>
</event>
<event>
13    1  0.2101801E-008  0.2438683E+03  0.7546771E-02  0.1209642E+00
          2   -1    0    0  503    0  0.00000000000E+00  0.00000000000E+00  0.42081805357E+04  0.42081805357E+04  0.00000000000E+00 0. -1.
          2   -1    0    0  502    0 -0.00000000000E+00 -0.00000000000E+00 -0.11960744204E+04  0.11960744204E+04  0.00000000000E+00 0. -1.
         24    2    1    2    0    0  0.19179522646E+03  0.13673978929E+03 -0.10574346822E+03  0.27050516363E+03  0.80673314122E+02 0.  0.
         25    2    1    2    0    0 -0.29875601523E+03  0.89519263235E+02  0.25919732637E+04  0.26136599491E+04  0.12499629812E+03 0.  0.
         24    2    1    2    0    0 -0.44595806614E+02 -0.17196960616E+03  0.29128569410E+03  0.35023550229E+03  0.79089949234E+02 0.  0.
        -11    1    5    5    0    0 -0.51591491949E+01  0.80155404738E+01  0.21668974394E+02  0.23672983775E+02  0.00000000000E+00 0.  1.
         12    1    5    5    0    0 -0.39436657419E+02 -0.17998514663E+03  0.26961671970E+03  0.32656251852E+03  0.00000000000E+00 0. -1.
        -13    1    3    3    0    0 -0.54069826764E+01  0.16957289531E+02 -0.11957557091E+02  0.21442208409E+02  0.00000000000E+00 0.  1.
         14    1    3    3    0    0  0.19720220914E+03  0.11978249976E+03 -0.93785911131E+02  0.24906295522E+03  0.00000000000E+00 0. -1.
          5    1    4    4  501    0 -0.19267377961E+03 -0.21907570212E+01  0.13259612613E+04  0.13398967651E+04  0.47000000000E+01 0. -1.
         -5    1    4    4    0  501 -0.10608223562E+03  0.91710020256E+02  0.12660120024E+04  0.12737631839E+04  0.47000000000E+01 0. -1.
          1    1    1    2  502    0  0.22648688032E+03 -0.91339517300E+02 -0.95072795351E+03  0.98159200077E+03  0.00000000000E+00 0. -1.
          1    1    1    2  503    0 -0.74930284931E+02  0.37050070933E+02  0.11853185792E+04  0.11882623404E+04  0.00000000000E+00 0. -1.
<mgrwt>
<rscale>  0 0.14277570E+03</rscale>
<asrwt>0</asrwt>
<pdfrwt beam="1">  1        2 0.61885007E+00 0.83589804E+02</pdfrwt>
<pdfrwt beam="2">  1        2 0.17589330E+00 0.24386827E+03</pdfrwt>
<totfact> 0.18678612E+00</totfact>
</mgrwt>
</event>
<event>
13    1  0.2101801E-008  0.8707782E+02  0.7546771E-02  0.1334340E+00
          2   -1    0    0  503    0  0.00000000000E+00  0.00000000000E+00  0.46662645601E+02  0.46662645601E+02  0.00000000000E+00 0. -1.
          2   -1    0    0  502    0 -0.00000000000E+00 -0.00000000000E+00 -0.26509918637E+04  0.26509918637E+04  0.00000000000E+00 0. -1.
         24    2    1    2    0    0  0.31558666793E+02  0.60494768063E+02 -0.25819826972E+03  0.27895081079E+03  0.80570726329E+02 0.  0.
         25    2    1    2    0    0  0.78893964930E+02  0.10593151869E+03 -0.38925401913E+03  0.42963780980E+03  0.12499684733E+03 0.  0.
         24    2    1    2    0    0  0.13523421624E+02 -0.82444611581E+02 -0.75617480281E+03  0.76416116255E+03  0.71846732870E+02 0.  0.
        -11    1    5    5    0    0 -0.22984984960E+02 -0.61071807388E+02 -0.37375809109E+03  0.37941163114E+03  0.00000000000E+00 0.  1.
         12    1    5    5    0    0  0.36508406584E+02 -0.21372804193E+02 -0.38241671172E+03  0.38474953140E+03  0.00000000000E+00 0. -1.
        -13    1    3    3    0    0 -0.14785196302E+02 -0.11904719639E+02 -0.35874034812E+02  0.40586583412E+02  0.00000000000E+00 0.  1.
         14    1    3    3    0    0  0.46343863095E+02  0.72399487702E+02 -0.22232423491E+03  0.23836422738E+03  0.00000000000E+00 0. -1.
          5    1    4    4  501    0 -0.31687111958E+02  0.22546311712E+02 -0.12863459833E+03  0.13446694435E+03  0.47000000000E+01 0.  1.
         -5    1    4    4    0  501  0.11058107689E+03  0.83385206981E+02 -0.26061942080E+03  0.29517086545E+03  0.47000000000E+01 0.  1.
          1    1    1    2  502    0 -0.52507516207E+02 -0.46541438647E+02 -0.10629551329E+04  0.10652683977E+04  0.00000000000E+00 0. -1.
          1    1    1    2  503    0 -0.71468537140E+02 -0.37440236529E+02 -0.13774699359E+03  0.15963632843E+03  0.00000000000E+00 0. -1.
<mgrwt>
<rscale>  0 0.78165377E+02</rscale>
<asrwt>0</asrwt>
<pdfrwt beam="1">  1        2 0.68621538E-02 0.87077821E+02</pdfrwt>
<pdfrwt beam="2">  1        2 0.38985174E+00 0.70165125E+02</pdfrwt>
<totfact> 0.67863118E+02</totfact>
</mgrwt>
</event>
<event>
13    1  0.2101801E-008  0.1053353E+03  0.7546771E-02  0.1280958E+00
          2   -1    0    0  503    0  0.00000000000E+00  0.00000000000E+00  0.22984434481E+04  0.22984434481E+04  0.00000000000E+00 0. -1.
          2   -1    0    0  502    0 -0.00000000000E+00 -0.00000000000E+00 -0.15981404845E+04  0.15981404845E+04  0.00000000000E+00 0. -1.
         24    2    1    2    0    0  0.44077745743E+02 -0.11249452159E+02 -0.30164338054E+03  0.31785102072E+03  0.89281266264E+02 0.  0.
         25    2    1    2    0    0 -0.11829604417E+03 -0.11854392457E+03  0.13196484592E+02  0.20939711899E+03  0.12500556034E+03 0.  0.
         24    2    1    2    0    0  0.52478614632E+02 -0.58758316353E+02  0.46768356198E+03  0.48142920466E+03  0.82701996494E+02 0.  0.
        -11    1    3    3    0    0 -0.95362042874E+01 -0.19923699012E+02 -0.21121240835E+03  0.21236424938E+03  0.00000000000E+00 0.  1.
         12    1    3    3    0    0  0.53613950030E+02  0.86742468528E+01 -0.90430972196E+02  0.10548677134E+03  0.00000000000E+00 0. -1.
        -13    1    5    5    0    0  0.50530625262E+02 -0.77833310755E+02  0.34526973172E+03  0.35752280486E+03  0.00000000000E+00 0.  1.
         14    1    5    5    0    0  0.19479893706E+01  0.19074994402E+02  0.12241383026E+03  0.12390639980E+03  0.00000000000E+00 0. -1.
          5    1    4    4  501    0 -0.60003922364E+02 -0.10707119400E+03  0.57024660647E+02  0.13542013590E+03  0.47000000000E+01 0.  1.
         -5    1    4    4    0  501 -0.58292121807E+02 -0.11472730570E+02 -0.43828176055E+02  0.73976983095E+02  0.47000000000E+01 0.  1.
          1    1    1    2  502    0 -0.30670413166E+02  0.98600293267E+02 -0.11795728499E+04  0.11840839499E+04  0.00000000000E+00 0. -1.
          1    1    1    2  503    0  0.52410096961E+02  0.89951399816E+02  0.17006391476E+04  0.17038226383E+04  0.00000000000E+00 0. -1.
<mgrwt>
<rscale>  0 0.99685869E+02</rscale>
<asrwt>0</asrwt>
<pdfrwt beam="1">  1        2 0.33800639E+00 0.10533534E+03</pdfrwt>
<pdfrwt beam="2">  1        2 0.23502066E+00 0.94339395E+02</pdfrwt>
<totfact> 0.14641520E+01</totfact>
</mgrwt>
</event>
<event>
13    1  0.2101801E-008  0.1176931E+03  0.7546771E-02  0.1373950E+00
          2   -1    0    0  503    0  0.00000000000E+00  0.00000000000E+00  0.17945067203E+04  0.17945067203E+04  0.00000000000E+00 0. -1.
         -1   -1    0    0    0  501 -0.00000000000E+00 -0.00000000000E+00 -0.56002857949E+03  0.56002857949E+03  0.00000000000E+00 0.  1.
         24    2    1    2    0    0 -0.34794381049E+02  0.61223223286E+02 -0.20884484243E+03  0.22810877259E+03  0.58809114096E+02 0.  0.
         25    2    1    2    0    0  0.11029946198E+03  0.33318477396E+02  0.49975838489E+03  0.52788305837E+03  0.12500395113E+03 0.  0.
         24    2    1    2    0    0  0.63606175912E+02  0.29789516063E+02  0.18326428129E+02  0.10808881358E+03  0.80088530838E+02 0.  0.
        -13    1    3    3    0    0  0.14662814179E+02  0.24846434684E+02 -0.87203573084E+02  0.91852090857E+02  0.00000000000E+00 0.  1.
         14    1    3    3    0    0 -0.49457195228E+02  0.36376788602E+02 -0.12164126935E+03  0.13625668173E+03  0.00000000000E+00 0. -1.
        -13    1    5    5    0    0  0.98176119380E+01  0.48527004430E+02  0.10253819223E+02  0.50560819532E+02  0.00000000000E+00 0.  1.
         14    1    5    5    0    0  0.53788563974E+02 -0.18737488367E+02  0.80726089057E+01  0.57527994048E+02  0.00000000000E+00 0. -1.
          5    1    4    4  502    0 -0.78539912142E+01  0.10989505508E+02  0.25241696076E+03  0.25282180778E+03  0.47000000000E+01 0.  1.
         -5    1    4    4    0  502  0.11815345319E+03  0.22328971888E+02  0.24734142413E+03  0.27506125060E+03  0.47000000000E+01 0.  1.
          1    1    1    2  503    0 -0.20338019595E+02 -0.31031798893E+02  0.11873561658E+04  0.11879357189E+04  0.00000000000E+00 0. -1.
         -2    1    1    2    0  501 -0.11877323725E+03 -0.93299417851E+02 -0.26211799561E+03  0.30251893640E+03  0.00000000000E+00 0.  1.
<mgrwt>
<rscale>  0 0.66081210E+02</rscale>
<asrwt>0</asrwt>
<pdfrwt beam="1">  1        2 0.26389805E+00 0.37102663E+02</pdfrwt>
<pdfrwt beam="2">  1       -1 0.82357145E-01 0.11769307E+03</pdfrwt>
<totfact> 0.23078809E+01</totfact>
</mgrwt>
</event>
<event>
13    1  0.2101801E-008  0.9949421E+02  0.7546771E-02  0.1320998E+00
          2   -1    0    0  503    0  0.00000000000E+00  0.00000000000E+00  0.50149719489E+03  0.50149719489E+03  0.00000000000E+00 0. -1.
          2   -1    0    0  502    0 -0.00000000000E+00 -0.00000000000E+00 -0.34902611514E+04  0.34902611514E+04  0.00000000000E+00 0. -1.
         24    2    1    2    0    0 -0.88012204886E+02 -0.44095288347E+02 -0.71452420449E+02  0.14521667132E+03  0.79321438318E+02 0.  0.
         25    2    1    2    0    0  0.17651166466E+03  0.63700942932E+02 -0.10445411351E+03  0.24853497622E+03  0.12507915367E+03 0.  0.
         24    2    1    2    0    0  0.67360162467E+01  0.10757258315E+03  0.21290902981E+03  0.25185564631E+03  0.80521904116E+02 0.  0.
        -11    1    3    3    0    0 -0.57968192388E+01  0.59497303248E+01  0.14150017114E+02  0.16408089119E+02  0.00000000000E+00 0.  1.
         12    1    3    3    0    0 -0.82215385647E+02 -0.50045018672E+02 -0.85602437562E+02  0.12880858220E+03  0.00000000000E+00 0. -1.
        -13    1    5    5    0    0 -0.94358609378E+01 -0.50490017999E+01  0.28686050614E+00  0.10705614404E+02  0.00000000000E+00 0.  1.
         14    1    5    5    0    0  0.16171877184E+02  0.11262158494E+03  0.21262216930E+03  0.24115003190E+03  0.00000000000E+00 0. -1.
          5    1    4    4  501    0  0.12322764570E+03  0.87415785805E+02 -0.11389819266E+03  0.18926558209E+03  0.47000000000E+01 0.  1.
         -5    1    4    4    0  501  0.53284018962E+02 -0.23714842873E+02  0.94440791502E+01  0.59269394128E+02  0.47000000000E+01 0.  1.
          1    1    1    2  502    0 -0.20077582213E+02 -0.66103772016E+02 -0.31709112585E+04  0.31716637633E+04  0.00000000000E+00 0. -1.
          1    1    1    2  503    0 -0.75157893805E+02 -0.61074465714E+02  0.14514480610E+03  0.17448728922E+03  0.00000000000E+00 0. -1.
<mgrwt>
<rscale>  0 0.82907270E+02</rscale>
<asrwt>0</asrwt>
<pdfrwt beam="1">  1        2 0.73749591E-01 0.99494206E+02</pdfrwt>
<pdfrwt beam="2">  1        2 0.51327367E+00 0.69085584E+02</pdfrwt>
<totfact> 0.16952844E+01</totfact>
</mgrwt>
</event>
<event>
13    1  0.2101801E-008  0.6238549E+02  0.7546771E-02  0.1474455E+00
          2   -1    0    0  503    0  0.00000000000E+00  0.00000000000E+00  0.46468456253E+03  0.46468456253E+03  0.00000000000E+00 0. -1.
          2   -1    0    0  502    0 -0.00000000000E+00 -0.00000000000E+00 -0.16115316306E+04  0.16115316306E+04  0.00000000000E+00 0. -1.
         24    2    1    2    0    0  0.95670796223E+02 -0.41880592465E+01 -0.54690554156E+03  0.56120066754E+03  0.81670537956E+02 0.  0.
         25    2    1    2    0    0 -0.37776386194E+01 -0.11468845705E+03  0.13404957279E+03  0.21624465863E+03  0.12499900674E+03 0.  0.
         24    2    1    2    0    0 -0.63032952325E+02  0.15889609368E+03 -0.10744148390E+03  0.21844956811E+03  0.83399158734E+02 0.  0.
        -11    1    5    5    0    0  0.32491762780E+01 -0.14690841066E+01 -0.26917879087E+02  0.27153039777E+02  0.00000000000E+00 0.  1.
         12    1    5    5    0    0 -0.66282128603E+02  0.16036517779E+03 -0.80523604811E+02  0.19129652833E+03  0.00000000000E+00 0. -1.
        -11    1    3    3    0    0  0.17921419520E+02  0.33968233835E+02 -0.13943284253E+03  0.14462550177E+03  0.00000000000E+00 0.  1.
         12    1    3    3    0    0  0.77749376703E+02 -0.38156293081E+02 -0.40747269903E+03  0.41657516577E+03  0.00000000000E+00 0. -1.
          5    1    4    4  501    0 -0.10228420146E+02 -0.74771520120E+02 -0.55842134682E+00  0.75616153262E+02  0.47000000000E+01 0. -1.
         -5    1    4    4    0  501  0.64507815269E+01 -0.39916936935E+02  0.13460799414E+03  0.14062850537E+03  0.47000000000E+01 0. -1.
          1    1    1    2  502    0 -0.57417016157E+02 -0.24643371451E+02 -0.85112531381E+03  0.85341567205E+03  0.00000000000E+00 0. -1.
          1    1    1    2  503    0  0.28556810878E+02 -0.15376205928E+02  0.22457569841E+03  0.22690562680E+03  0.00000000000E+00 0. -1.
<mgrwt>
<rscale>  0 0.44981857E+02</rscale>
<asrwt>0</asrwt>
<pdfrwt beam="1">  1        2 0.68335966E-01 0.32433303E+02</pdfrwt>
<pdfrwt beam="2">  1        2 0.23698994E+00 0.62385489E+02</pdfrwt>
<totfact> 0.16515704E+02</totfact>
</mgrwt>
</event>
<event>
13    1  0.2101801E-008  0.6064452E+02  0.7546771E-02  0.1438544E+00
          2   -1    0    0  502    0  0.00000000000E+00  0.00000000000E+00  0.13191616086E+04  0.13191616086E+04  0.00000000000E+00 0. -1.
          2   -1    0    0  503    0 -0.00000000000E+00 -0.00000000000E+00 -0.24228440090E+04  0.24228440090E+04  0.00000000000E+00 0. -1.
         24    2    1    2    0    0 -0.35014797633E+02 -0.81445004327E+02 -0.12095280586E+04  0.12155276349E+04  0.81792309954E+02 0.  0.
         25    2    1    2    0    0  0.44427735306E+02  0.20931113031E+03  0.30543906357E+03  0.39332267940E+03  0.12499894256E+03 0.  0.
         24    2    1    2    0    0 -0.10752647462E+02 -0.67380443746E+02  0.99473133246E+02  0.14527451808E+03  0.80957011665E+02 0.  0.
        -11    1    3    3    0    0  0.16946672498E+02 -0.60270941891E+02 -0.52947182476E+03  0.53316056621E+03  0.00000000000E+00 0.  1.
         12    1    3    3    0    0 -0.51961470130E+02 -0.21174062436E+02 -0.68005623381E+03  0.68236706870E+03  0.00000000000E+00 0. -1.
        -13    1    5    5    0    0 -0.45429329135E+02 -0.28519257227E+02  0.54379015816E+02  0.76382258015E+02  0.00000000000E+00 0.  1.
         14    1    5    5    0    0  0.34676681673E+02 -0.38861186520E+02  0.45094117430E+02  0.68892260062E+02  0.00000000000E+00 0. -1.
          5    1    4    4  501    0 -0.35134831766E+01  0.19653341846E+03  0.25921384166E+03  0.32534848216E+03  0.47000000000E+01 0.  1.
         -5    1    4    4    0  501  0.47941218482E+02  0.12777711843E+02  0.46225221911E+02  0.67974197238E+02  0.47000000000E+01 0.  1.
          1    1    1    2  502    0 -0.40199811857E+02 -0.16265333801E+02  0.84304464415E+03  0.84415926103E+03  0.00000000000E+00 0. -1.
          1    1    1    2  503    0  0.41539521646E+02 -0.44220348432E+02 -0.11421111828E+04  0.11437215242E+04  0.00000000000E+00 0. -1.
<mgrwt>
<rscale>  0 0.51282486E+02</rscale>
<asrwt>0</asrwt>
<pdfrwt beam="1">  1        2 0.19399436E+00 0.43365723E+02</pdfrwt>
<pdfrwt beam="2">  1        2 0.35630059E+00 0.60644517E+02</pdfrwt>
<totfact> 0.19849159E+01</totfact>
</mgrwt>
</event>
<event>
13    1  0.2101801E-008  0.8073469E+02  0.7546771E-02  0.1391098E+00
          2   -1    0    0  503    0  0.00000000000E+00  0.00000000000E+00  0.29147487522E+04  0.29147487522E+04  0.00000000000E+00 0. -1.
          2   -1    0    0  502    0 -0.00000000000E+00 -0.00000000000E+00 -0.38376858567E+03  0.38376858567E+03  0.00000000000E+00 0. -1.
         24    2    1    2    0    0 -0.30118039203E+01  0.27922222408E+01 -0.14584945552E+03  0.16631122141E+03  0.79815357068E+02 0.  0.
         25    2    1    2    0    0 -0.45245448206E+02  0.17568793511E+03  0.76895937624E+03  0.79989788246E+03  0.12499879574E+03 0.  0.
         24    2    1    2    0    0  0.11072557996E+02 -0.73714526219E+02  0.50864986159E+02  0.12062279986E+03  0.80038616386E+02 0.  0.
        -11    1    5    5    0    0  0.22875942566E+02  0.90941946664E+01  0.46285615860E+01  0.25048686737E+02  0.00000000000E+00 0.  1.
         12    1    5    5    0    0 -0.11803384570E+02 -0.82808720885E+02  0.46236424573E+02  0.95574113123E+02  0.00000000000E+00 0. -1.
        -13    1    3    3    0    0 -0.13597366372E+02  0.33644883688E+02 -0.33730951393E+02  0.49544360451E+02  0.00000000000E+00 0.  1.
         14    1    3    3    0    0  0.10585562452E+02 -0.30852661447E+02 -0.11211850413E+03  0.11676686096E+03  0.00000000000E+00 0. -1.
          5    1    4    4  501    0  0.94057677250E+01 -0.66500902503E+01  0.65285029305E+01  0.14050036205E+02  0.47000000000E+01 0.  1.
         -5    1    4    4    0  501 -0.54651215931E+02  0.18233802536E+03  0.76243087331E+03  0.78584784626E+03  0.47000000000E+01 0.  1.
          1    1    1    2  502    0  0.57104209132E+02 -0.62137300866E+02 -0.16701121988E+03  0.18712210566E+03  0.00000000000E+00 0. -1.
          1    1    1    2  503    0 -0.19919515002E+02 -0.42628330267E+02  0.20240164795E+04  0.20245633284E+04  0.00000000000E+00 0. -1.
<mgrwt>
<rscale>  0 0.61634319E+02</rscale>
<asrwt>0</asrwt>
<pdfrwt beam="1">  1        2 0.42863951E+00 0.47052754E+02</pdfrwt>
<pdfrwt beam="2">  1        2 0.56436558E-01 0.80734685E+02</pdfrwt>
<totfact> 0.49412360E+01</totfact>
</mgrwt>
</event>
<event>
13    1  0.2101801E-008  0.1181961E+03  0.7546771E-02  0.1318187E+00
          2   -1    0    0  503    0  0.00000000000E+00  0.00000000000E+00  0.36994762956E+04  0.36994762956E+04  0.00000000000E+00 0. -1.
          2   -1    0    0  502    0 -0.00000000000E+00 -0.00000000000E+00 -0.96851537545E+03  0.96851537545E+03  0.00000000000E+00 0. -1.
         24    2    1    2    0    0  0.22952544711E+02 -0.50808305325E+02  0.89788934635E+03  0.90330640654E+03  0.81540680759E+02 0.  0.
         25    2    1    2    0    0  0.13974781226E+03 -0.25024659411E+02  0.38659067610E+03  0.43038776652E+03  0.12500237643E+03 0.  0.
         24    2    1    2    0    0  0.55934109008E+01 -0.21863436173E+02  0.21753410723E+03  0.23114682957E+03  0.74822943848E+02 0.  0.
        -11    1    5    5    0    0 -0.33462093377E+02 -0.93466408205E+01  0.12862235464E+03  0.13323205883E+03  0.00000000000E+00 0.  1.
         12    1    5    5    0    0  0.39055504278E+02 -0.12516795352E+02  0.88911752593E+02  0.97914770742E+02  0.00000000000E+00 0. -1.
        -13    1    3    3    0    0  0.31657638835E+02 -0.59715697935E+02  0.43239974276E+03  0.43765021217E+03  0.00000000000E+00 0.  1.
         14    1    3    3    0    0 -0.87050941238E+01  0.89073926096E+01  0.46548960359E+03  0.46565619437E+03  0.00000000000E+00 0. -1.
          5    1    4    4  501    0  0.79585264462E+02 -0.47293892052E+01  0.66204126415E+02  0.10373648247E+03  0.47000000000E+01 0. -1.
         -5    1    4    4    0  501  0.60162547801E+02 -0.20295270206E+02  0.32038654968E+03  0.32665128404E+03  0.47000000000E+01 0. -1.
          1    1    1    2  502    0 -0.63069445061E+01  0.59299691819E+02 -0.93294986461E+03  0.93485382861E+03  0.00000000000E+00 0. -1.
          1    1    1    2  503    0 -0.16198682337E+03  0.38396709090E+02  0.21618966550E+04  0.21682968398E+04  0.00000000000E+00 0. -1.
<mgrwt>
<rscale>  0 0.83955477E+02</rscale>
<asrwt>0</asrwt>
<pdfrwt beam="1">  1        2 0.54404063E+00 0.11819608E+03</pdfrwt>
<pdfrwt beam="2">  1        2 0.14242873E+00 0.59634143E+02</pdfrwt>
<totfact> 0.54573603E+00</totfact>
</mgrwt>
</event>
<event>
13    1  0.2101801E-008  0.1155276E+03  0.7546771E-02  0.1301539E+00
          2   -1    0    0  503    0  0.00000000000E+00  0.00000000000E+00  0.28051658751E+04  0.28051658751E+04  0.00000000000E+00 0. -1.
          2   -1    0    0  502    0 -0.00000000000E+00 -0.00000000000E+00 -0.10648469303E+04  0.10648469303E+04  0.00000000000E+00 0. -1.
         24    2    1    2    0    0  0.22194342828E+02  0.45463606647E+02 -0.53230454527E+03  0.54134263532E+03  0.84523319326E+02 0.  0.
         25    2    1    2    0    0 -0.15506746130E+03  0.13726142591E+02  0.36238346861E+02  0.20290939243E+03  0.12499871683E+03 0.  0.
         24    2    1    2    0    0 -0.43624972644E+01  0.29958979440E+02 -0.48505642885E+02  0.96108713098E+02  0.77249695859E+02 0.  0.
        -11    1    3    3    0    0 -0.16441682910E+02 -0.17125803578E+02 -0.16975189376E+03  0.17140398922E+03  0.00000000000E+00 0.  1.
         12    1    3    3    0    0  0.38636025738E+02  0.62589410225E+02 -0.36255265151E+03  0.36993864610E+03  0.00000000000E+00 0. -1.
        -11    1    5    5    0    0 -0.17118521570E+02  0.89376437318E+01  0.17257640791E+02  0.25898869124E+02  0.00000000000E+00 0.  1.
         12    1    5    5    0    0  0.12756024305E+02  0.21021335708E+02 -0.65763283676E+02  0.70209843974E+02  0.00000000000E+00 0. -1.
          5    1    4    4  501    0 -0.84998324904E+02  0.69011154444E+02  0.28290546388E+02  0.11317994385E+03  0.47000000000E+01 0. -1.
         -5    1    4    4    0  501 -0.70069136394E+02 -0.55285011853E+02  0.79478004732E+01  0.89729448582E+02  0.47000000000E+01 0. -1.
          1    1    1    2  502    0  0.11816833329E+03 -0.20794742069E+02 -0.36222781167E+03  0.38158244697E+03  0.00000000000E+00 0. -1.
          1    1    1    2  503    0  0.19067282444E+02 -0.68353986609E+02  0.26471185978E+04  0.26480696176E+04  0.00000000000E+00 0. -1.
<mgrwt>
<rscale>  0 0.90544201E+02</rscale>
<asrwt>0</asrwt>
<pdfrwt beam="1">  1        2 0.41252439E+00 0.70963573E+02</pdfrwt>
<pdfrwt beam="2">  1        2 0.15659514E+00 0.11552762E+03</pdfrwt>
<totfact> 0.16068196E+01</totfact>
</mgrwt>
</event>
<event>
13    1  0.2101801E-008  0.4264620E+02  0.7546771E-02  0.1509775E+00
          2   -1    0    0  502    0  0.00000000000E+00  0.00000000000E+00  0.22184112930E+04  0.22184112930E+04  0.00000000000E+00 0. -1.
          2   -1    0    0  503    0 -0.00000000000E+00 -0.00000000000E+00 -0.69817637864E+03  0.69817637864E+03  0.00000000000E+00 0. -1.
         24    2    1    2    0    0 -0.23610805693E+02 -0.67842042541E+02 -0.35507879517E+02  0.11449054995E+03  0.81775691007E+02 0.  0.
         25    2    1    2    0    0  0.82905041004E+02  0.11586961104E+03 -0.86460785207E+02  0.20832983957E+03  0.12500736815E+03 0.  0.
         24    2    1    2    0    0 -0.11337134861E+03 -0.96003948914E+02  0.90623784072E+03  0.92189432846E+03  0.80946327987E+02 0.  0.
        -11    1    5    5    0    0 -0.10528616455E+03 -0.99479403747E+02  0.66937386974E+03  0.68486692554E+03  0.00000000000E+00 0.  1.
         12    1    5    5    0    0 -0.80851840630E+01  0.34754548331E+01  0.23686397098E+03  0.23702740292E+03  0.00000000000E+00 0. -1.
        -11    1    3    3    0    0 -0.38781844209E+02 -0.15404644778E+02  0.10578985380E+02  0.43049383883E+02  0.00000000000E+00 0.  1.
         12    1    3    3    0    0  0.15171038516E+02 -0.52437397763E+02 -0.46086864897E+02  0.71441166072E+02  0.00000000000E+00 0. -1.
          5    1    4    4  501    0  0.77042625766E+02  0.65448241132E+02  0.74525662203E+01  0.10147250463E+03  0.47000000000E+01 0. -1.
         -5    1    4    4    0  501  0.58624152373E+01  0.50421369904E+02 -0.93913351428E+02  0.10685733495E+03  0.47000000000E+01 0. -1.
          1    1    1    2  502    0  0.40426813944E+02  0.13455193107E+02  0.12028053434E+04  0.12035597466E+04  0.00000000000E+00 0. -1.
          1    1    1    2  503    0  0.13650299356E+02  0.34521187312E+02 -0.46683960505E+03  0.46831320704E+03  0.00000000000E+00 0. -1.
<mgrwt>
<rscale>  0 0.39788343E+02</rscale>
<asrwt>0</asrwt>
<pdfrwt beam="1">  1        2 0.32623695E+00 0.42646197E+02</pdfrwt>
<pdfrwt beam="2">  1        2 0.10267300E+00 0.37122002E+02</pdfrwt>
<totfact> 0.58264777E+01</totfact>
</mgrwt>
</event>
<event>
13    1  0.2101801E-008  0.1375171E+03  0.7546771E-02  0.1309569E+00
          2   -1    0    0  503    0  0.00000000000E+00  0.00000000000E+00  0.19730348572E+04  0.19730348572E+04  0.00000000000E+00 0. -1.
          2   -1    0    0  502    0 -0.00000000000E+00 -0.00000000000E+00 -0.85586941380E+03  0.85586941380E+03  0.00000000000E+00 0. -1.
         24    2    1    2    0    0  0.30074549152E+02 -0.14897000949E+02 -0.19222010222E+03  0.20223445418E+03  0.53139510874E+02 0.  0.
         25    2    1    2    0    0  0.25113635405E+02  0.13302818794E+03 -0.16354189268E+03  0.24636430868E+03  0.12498891334E+03 0.  0.
         24    2    1    2    0    0 -0.48717831491E+02  0.70270003548E+02  0.24636900790E+03  0.27346470255E+03  0.82304039907E+02 0.  0.
        -11    1    3    3    0    0  0.10371863865E+02 -0.32869606272E+02 -0.84431423004E+02  0.91195678445E+02  0.00000000000E+00 0.  1.
         12    1    3    3    0    0  0.19702685287E+02  0.17972605323E+02 -0.10778867921E+03  0.11103877573E+03  0.00000000000E+00 0. -1.
        -11    1    5    5    0    0 -0.66982694129E+02  0.34621840812E+02  0.12865274066E+03  0.14912035694E+03  0.00000000000E+00 0.  1.
         12    1    5    5    0    0  0.18264862637E+02  0.35648162736E+02  0.11771626724E+03  0.12434434561E+03  0.00000000000E+00 0. -1.
          5    1    4    4  501    0  0.29155834994E+02  0.15680338351E+03 -0.13857073050E+03  0.21133220565E+03  0.47000000000E+01 0. -1.
         -5    1    4    4    0  501 -0.40421995887E+01 -0.23775195569E+02 -0.24971162172E+02  0.35032103021E+02  0.47000000000E+01 0. -1.
          1    1    1    2  502    0  0.55105973881E+02  0.56864399645E+01 -0.43214725395E+03  0.43568366168E+03  0.00000000000E+00 0. -1.
          1    1    1    2  503    0 -0.61576326946E+02 -0.19408763051E+03  0.16587056843E+04  0.16711571439E+04  0.00000000000E+00 0. -1.
<mgrwt>
<rscale>  0 0.87282611E+02</rscale>
<asrwt>0</asrwt>
<pdfrwt beam="1">  1        2 0.29015219E+00 0.13751711E+03</pdfrwt>
<pdfrwt beam="2">  1        2 0.12586315E+00 0.55398592E+02</pdfrwt>
<totfact> 0.52215415E+01</totfact>
</mgrwt>
</event>
<event>
13    1  0.2101801E-008  0.9460227E+02  0.7546771E-02  0.1347604E+00
          2   -1    0    0  502    0  0.00000000000E+00  0.00000000000E+00  0.13499904720E+04  0.13499904720E+04  0.00000000000E+00 0. -1.
          2   -1    0    0  503    0 -0.00000000000E+00 -0.00000000000E+00 -0.28642226768E+04  0.28642226768E+04  0.00000000000E+00 0. -1.
         24    2    1    2    0    0  0.35533750189E+02 -0.22960352021E+02 -0.58292230206E+03  0.58976406713E+03  0.78952007374E+02 0.  0.
         25    2    1    2    0    0  0.15180157879E+03 -0.37519407429E+02 -0.12755993466E+03  0.23738113728E+03  0.12500736837E+03 0.  0.
         24    2    1    2    0    0 -0.70307257040E+02 -0.36641625235E+02 -0.17737170669E+03  0.21011657425E+03  0.80015831851E+02 0.  0.
        -11    1    3    3    0    0  0.58309440158E+02 -0.24242457544E+02 -0.34339777731E+03  0.34915572603E+03  0.00000000000E+00 0.  1.
         12    1    3    3    0    0 -0.22775689969E+02  0.12821055235E+01 -0.23952452475E+03  0.24060834110E+03  0.00000000000E+00 0. -1.
        -11    1    5    5    0    0 -0.86412705856E+02 -0.24900802123E+02 -0.12425359580E+03  0.15338240365E+03  0.00000000000E+00 0.  1.
         12    1    5    5    0    0  0.16105448817E+02 -0.11740823112E+02 -0.53118110891E+02  0.56734170600E+02  0.00000000000E+00 0. -1.
          5    1    4    4  501    0  0.40069974436E+02 -0.71069785747E+02 -0.37437917327E+02  0.89889960236E+02  0.47000000000E+01 0. -1.
         -5    1    4    4    0  501  0.11173160435E+03  0.33550378318E+02 -0.90122017337E+02  0.14749117704E+03  0.47000000000E+01 0. -1.
          1    1    1    2  502    0 -0.71730075954E+02  0.61568642629E+02  0.12730978875E+04  0.12766025743E+04  0.00000000000E+00 0. -1.
          1    1    1    2  503    0 -0.45297995984E+02  0.35552742055E+02 -0.18994761488E+04  0.19003487958E+04  0.00000000000E+00 0. -1.
<mgrwt>
<rscale>  0 0.73807643E+02</rscale>
<asrwt>0</asrwt>
<pdfrwt beam="1">  1        2 0.19852801E+00 0.94602274E+02</pdfrwt>
<pdfrwt beam="2">  1        2 0.42120922E+00 0.57583903E+02</pdfrwt>
<totfact> 0.11055514E+01</totfact>
</mgrwt>
</event>
<event>
13    1  0.2101801E-008  0.8828679E+02  0.7546771E-02  0.1308756E+00
          2   -1    0    0  503    0  0.00000000000E+00  0.00000000000E+00  0.71892509059E+03  0.71892509059E+03  0.00000000000E+00 0. -1.
          2   -1    0    0  502    0 -0.00000000000E+00 -0.00000000000E+00 -0.46294863934E+03  0.46294863934E+03  0.00000000000E+00 0. -1.
         24    2    1    2    0    0  0.64682232627E+01  0.62107238273E+01  0.34411232147E+02  0.86090821784E+02  0.78403352574E+02 0.  0.
         25    2    1    2    0    0  0.29337308879E+03  0.15446242074E+03 -0.18982953605E+03  0.40197370489E+03  0.12498479116E+03 0.  0.
         24    2    1    2    0    0 -0.14874000819E+03 -0.59048434285E+02  0.29363979332E+03  0.34579331872E+03  0.87968081814E+02 0.  0.
        -11    1    5    5    0    0 -0.21244626750E+02 -0.76481480699E+01  0.11482027195E+01  0.22608553782E+02  0.00000000000E+00 0.  1.
         12    1    5    5    0    0 -0.12749538144E+03 -0.51400286216E+02  0.29249159060E+03  0.32318476493E+03  0.00000000000E+00 0. -1.
        -13    1    3    3    0    0  0.83057921219E+01 -0.32195799016E+02  0.34116581267E+02  0.47639235661E+02  0.00000000000E+00 0.  1.
         14    1    3    3    0    0 -0.18375688592E+01  0.38406522843E+02  0.29465088030E+00  0.38451586123E+02  0.00000000000E+00 0. -1.
          5    1    4    4  501    0  0.89894751620E+02  0.74127013305E+02 -0.13101550379E+03  0.17539393577E+03  0.47000000000E+01 0.  1.
         -5    1    4    4    0  501  0.20347833717E+03  0.80335407433E+02 -0.58814032253E+02  0.22657976913E+03  0.47000000000E+01 0.  1.
          1    1    1    2  502    0 -0.69497669113E+02 -0.54858331572E+02 -0.86105137878E+02  0.12350488785E+03  0.00000000000E+00 0. -1.
          1    1    1    2  503    0 -0.81603634757E+02 -0.46766378708E+02  0.20386009970E+03  0.22451099668E+03  0.00000000000E+00 0. -1.
<mgrwt>
<rscale>  0 0.87605605E+02</rscale>
<asrwt>0</asrwt>
<pdfrwt beam="1">  1        2 0.10572428E+00 0.86929674E+02</pdfrwt>
<pdfrwt beam="2">  1        2 0.68080682E-01 0.88286791E+02</pdfrwt>
<totfact> 0.49737810E+02</totfact>
</mgrwt>
</event>
<event>
13    1  0.2101801E-008  0.7162616E+02  0.7546771E-02  0.1443874E+00
          2   -1    0    0  502    0  0.00000000000E+00  0.00000000000E+00  0.17182553959E+04  0.17182553959E+04  0.00000000000E+00 0. -1.
          2   -1    0    0  503    0 -0.00000000000E+00 -0.00000000000E+00 -0.51820918622E+03  0.51820918622E+03  0.00000000000E+00 0. -1.
         24    2    1    2    0    0  0.97916469076E+02  0.30061882597E+02 -0.12765593799E+03  0.18224141279E+03  0.80153242784E+02 0.  0.
         25    2    1    2    0    0 -0.70384765772E+01 -0.21256342588E+03  0.26065833148E+03  0.35888801489E+03  0.12500036514E+03 0.  0.
         24    2    1    2    0    0 -0.61430788540E+02  0.14029489452E+03 -0.79075836964E+02  0.19055047906E+03  0.81240986404E+02 0.  0.
        -11    1    5    5    0    0 -0.62772064155E+01  0.78428726460E+02 -0.73193539778E+02  0.10746051703E+03  0.00000000000E+00 0.  1.
         12    1    5    5    0    0 -0.55153582124E+02  0.61866168056E+02 -0.58822971866E+01  0.83089962036E+02  0.00000000000E+00 0. -1.
        -11    1    3    3    0    0 -0.41171065298E+01 -0.15732590362E+02 -0.28317503708E+02  0.32654953405E+02  0.00000000000E+00 0.  1.
         12    1    3    3    0    0  0.10203357561E+03  0.45794472959E+02 -0.99338434280E+02  0.14958645938E+03  0.00000000000E+00 0. -1.
          5    1    4    4  501    0  0.28189716841E+02 -0.19856320743E+03  0.17950998574E+03  0.26919868584E+03  0.47000000000E+01 0.  1.
         -5    1    4    4    0  501 -0.35228193419E+02 -0.14000218452E+02  0.81148345736E+02  0.89689329042E+02  0.47000000000E+01 0.  1.
          1    1    1    2  502    0 -0.19750223677E+02 -0.29240610631E+02  0.13179591239E+04  0.13184313926E+04  0.00000000000E+00 0. -1.
          1    1    1    2  503    0 -0.96969802820E+01  0.71447259397E+02 -0.17183947075E+03  0.18635328280E+03  0.00000000000E+00 0. -1.
<mgrwt>
<rscale>  0 0.50273088E+02</rscale>
<asrwt>0</asrwt>
<pdfrwt beam="1">  1        2 0.25268462E+00 0.35285757E+02</pdfrwt>
<pdfrwt beam="2">  1        2 0.76207234E-01 0.71626163E+02</pdfrwt>
<totfact> 0.13773838E+02</totfact>
</mgrwt>
</event>
<event>
13    1  0.2101801E-008  0.7711310E+02  0.7546771E-02  0.1444484E+00
         -1   -1    0    0    0  501 -0.00000000000E+00  0.00000000000E+00  0.17963309062E+04  0.17963309062E+04  0.00000000000E+00 0.  1.
          2   -1    0    0  503    0  0.00000000000E+00 -0.00000000000E+00 -0.98091723161E+03  0.98091723161E+03  0.00000000000E+00 0. -1.
         24    2    1    2    0    0 -0.21137408224E+01  0.25500152108E+03  0.97236244408E+03  0.10084987536E+04  0.80936825733E+02 0.  0.
         25    2    1    2    0    0  0.14728857891E+03 -0.12292556027E+03 -0.56188910381E+03  0.60675141536E+03  0.12499318468E+03 0.  0.
         24    2    1    2    0    0 -0.89494554191E+02 -0.17013356202E+03  0.29827938609E+03  0.36543616854E+03  0.87282856027E+02 0.  0.
        -13    1    5    5    0    0 -0.10213974996E+03 -0.11518426315E+03  0.23180396034E+03  0.27826789076E+03  0.00000000000E+00 0.  1.
         14    1    5    5    0    0  0.12645195769E+02 -0.54949298873E+02  0.66475425749E+02  0.87168277780E+02  0.00000000000E+00 0. -1.
        -13    1    3    3    0    0 -0.74984872460E+01  0.24230196768E+03  0.80860642831E+03  0.84416279636E+03  0.00000000000E+00 0.  1.
         14    1    3    3    0    0  0.53847464236E+01  0.12699553395E+02  0.16375601576E+03  0.16433595726E+03  0.00000000000E+00 0. -1.
          5    1    4    4  502    0  0.82153647869E+02 -0.13906050794E+03 -0.40556321862E+03  0.43656690326E+03  0.47000000000E+01 0. -1.
         -5    1    4    4    0  502  0.65134931037E+02  0.16134947665E+02 -0.15632588518E+03  0.17018451209E+03  0.47000000000E+01 0. -1.
          1    1    1    2  503    0 -0.39412758579E+02  0.66339805426E+02 -0.34003263158E+03  0.34867825550E+03  0.00000000000E+00 0. -1.
         -2    1    1    2    0  501 -0.16267525314E+02 -0.28282204212E+02  0.44669357985E+03  0.44788354483E+03  0.00000000000E+00 0.  1.
<mgrwt>
<rscale>  0 0.50159372E+02</rscale>
<asrwt>0</asrwt>
<pdfrwt beam="2">  1        2 0.14425253E+00 0.77113105E+02</pdfrwt>
<pdfrwt beam="1">  1       -1 0.26416631E+00 0.32626913E+02</pdfrwt>
<totfact> 0.28955735E+00</totfact>
</mgrwt>
</event>
<event>
13    1  0.2101801E-008  0.8226013E+02  0.7546771E-02  0.1492274E+00
          2   -1    0    0  503    0  0.00000000000E+00  0.00000000000E+00  0.20397840275E+04  0.20397840275E+04  0.00000000000E+00 0. -1.
          2   -1    0    0  502    0 -0.00000000000E+00 -0.00000000000E+00 -0.61741515024E+03  0.61741515024E+03  0.00000000000E+00 0. -1.
         24    2    1    2    0    0 -0.30517839016E+02  0.75113300259E+02 -0.41168351545E+03  0.42712510400E+03  0.79869839103E+02 0.  0.
         25    2    1    2    0    0 -0.62854281387E+02 -0.11192986993E+03 -0.46448304416E+02  0.18509457336E+03  0.12499439841E+03 0.  0.
         24    2    1    2    0    0 -0.28079221514E+02  0.13586253781E+02  0.70480469595E+03  0.70983164828E+03  0.78347179240E+02 0.  0.
        -11    1    3    3    0    0 -0.46779054465E+02  0.17383200245E+02 -0.13284731404E+03  0.14191146689E+03  0.00000000000E+00 0.  1.
         12    1    3    3    0    0  0.16261215449E+02  0.57730100014E+02 -0.27883620141E+03  0.28521363711E+03  0.00000000000E+00 0. -1.
        -13    1    5    5    0    0 -0.27779726096E+02 -0.29492040079E+02  0.38848147996E+03  0.39058847126E+03  0.00000000000E+00 0.  1.
         14    1    5    5    0    0 -0.29949541790E+00  0.43078293860E+02  0.31632321599E+03  0.31924317702E+03  0.00000000000E+00 0. -1.
          5    1    4    4  501    0 -0.37900467144E+02 -0.92295945226E+02 -0.87633629780E+02  0.13287862877E+03  0.47000000000E+01 0.  1.
         -5    1    4    4    0  501 -0.24953814243E+02 -0.19633924702E+02  0.41185325364E+02  0.52215944594E+02  0.47000000000E+01 0.  1.
          1    1    1    2  502    0  0.21062177833E+02  0.52255670534E+01 -0.76135844972E+02  0.79168104535E+02  0.00000000000E+00 0. -1.
          1    1    1    2  503    0  0.10038916408E+03  0.18004748835E+02  0.12518318462E+04  0.12559797476E+04  0.00000000000E+00 0. -1.
<mgrwt>
<rscale>  0 0.42250506E+02</rscale>
<asrwt>0</asrwt>
<pdfrwt beam="1">  1        2 0.29996824E+00 0.82260129E+02</pdfrwt>
<pdfrwt beam="2">  1        2 0.90796346E-01 0.21700735E+02</pdfrwt>
<totfact> 0.75526345E+01</totfact>
</mgrwt>
</event>
<event>
13    1  0.2101801E-008  0.1013868E+03  0.7546771E-02  0.1282915E+00
          2   -1    0    0  503    0  0.00000000000E+00  0.00000000000E+00  0.10987907405E+04  0.10987907405E+04  0.00000000000E+00 0. -1.
          2   -1    0    0  502    0 -0.00000000000E+00 -0.00000000000E+00 -0.17682137878E+04  0.17682137878E+04  0.00000000000E+00 0. -1.
         24    2    1    2    0    0 -0.46855168280E+02 -0.29371632188E+02 -0.28549821700E+03  0.30135679325E+03  0.79047993975E+02 0.  0.
         25    2    1    2    0    0  0.23720884745E+03  0.56593825121E+02  0.66695924637E+03  0.72106225787E+03  0.12500098022E+03 0.  0.
         24    2    1    2    0    0 -0.62384177359E+02  0.11762426984E+03 -0.11107018837E+03  0.19134736792E+03  0.80931909795E+02 0.  0.
        -13    1    3    3    0    0 -0.55099097986E+02 -0.41557801650E+02 -0.27435036566E+03  0.28289765750E+03  0.00000000000E+00 0.  1.
         14    1    3    3    0    0  0.82439297061E+01  0.12186169462E+02 -0.11147851341E+02  0.18459135751E+02  0.00000000000E+00 0. -1.
        -13    1    5    5    0    0 -0.43089352468E+02  0.12563443495E+03 -0.83995143144E+02  0.15714925266E+03  0.00000000000E+00 0.  1.
         14    1    5    5    0    0 -0.19294824891E+02 -0.80101651093E+01 -0.27075045227E+02  0.34198115251E+02  0.00000000000E+00 0. -1.
          5    1    4    4  501    0 -0.96055961924E+01  0.78303019827E+01  0.98667406015E+02  0.99553644419E+02  0.47000000000E+01 0. -1.
         -5    1    4    4    0  501  0.24681444364E+03  0.48763523138E+02  0.56829184035E+03  0.62150861345E+03  0.47000000000E+01 0. -1.
          1    1    1    2  502    0 -0.49915729915E+02 -0.82248960150E+02 -0.12876798525E+04  0.12912690944E+04  0.00000000000E+00 0. -1.
          1    1    1    2  503    0 -0.78053771897E+02 -0.62597502624E+02  0.34786596429E+03  0.36196901490E+03  0.00000000000E+00 0. -1.
<mgrwt>
<rscale>  0 0.98764795E+02</rscale>
<asrwt>0</asrwt>
<pdfrwt beam="1">  1        2 0.16158688E+00 0.10138684E+03</pdfrwt>
<pdfrwt beam="2">  1        2 0.26003144E+00 0.96210558E+02</pdfrwt>
<totfact> 0.47815015E+01</totfact>
</mgrwt>
</event>
<event>
13    1  0.2101801E-008  0.7637044E+02  0.7546771E-02  0.1362705E+00
          2   -1    0    0  502    0  0.00000000000E+00  0.00000000000E+00  0.17529277440E+04  0.17529277440E+04  0.00000000000E+00 0. -1.
          2   -1    0    0  503    0 -0.00000000000E+00 -0.00000000000E+00 -0.19932988845E+04  0.19932988845E+04  0.00000000000E+00 0. -1.
         24    2    1    2    0    0 -0.14169612004E+03  0.17055628883E+02 -0.61385299091E+03  0.63517819635E+03  0.79165407622E+02 0.  0.
         25    2    1    2    0    0  0.31388113824E+02  0.29055863897E+02  0.10357026851E+03  0.16787222545E+03  0.12499930657E+03 0.  0.
         24    2    1    2    0    0  0.12255040282E+02  0.32579104894E+02 -0.54060204328E+02  0.10219925024E+03  0.79439265920E+02 0.  0.
        -13    1    3    3    0    0 -0.29749068980E+02  0.37254816188E+02 -0.14129662236E+03  0.14912298255E+03  0.00000000000E+00 0.  1.
         14    1    3    3    0    0 -0.11194705106E+03 -0.20199187305E+02 -0.47255636855E+03  0.48605521380E+03  0.00000000000E+00 0. -1.
        -13    1    5    5    0    0  0.17888007868E+02 -0.23965759607E+02 -0.18519870853E+02  0.35175617627E+02  0.00000000000E+00 0.  1.
         14    1    5    5    0    0 -0.56329675860E+01  0.56544864502E+02 -0.35540333475E+02  0.67023632614E+02  0.00000000000E+00 0. -1.
          5    1    4    4  501    0 -0.32506779955E+02 -0.22979146834E+02  0.67555520621E+01  0.40650454068E+02  0.47000000000E+01 0.  1.
         -5    1    4    4    0  501  0.63894893779E+02  0.52035010731E+02  0.96814716444E+02  0.12722177138E+03  0.47000000000E+01 0.  1.
          1    1    1    2  502    0  0.61638981808E+02 -0.11865893748E+02  0.15807004015E+04  0.15819462452E+04  0.00000000000E+00 0. -1.
          1    1    1    2  503    0  0.36413984125E+02 -0.66824703926E+02 -0.12567286153E+04  0.12590307112E+04  0.00000000000E+00 0. -1.
<mgrwt>
<rscale>  0 0.69237474E+02</rscale>
<asrwt>0</asrwt>
<pdfrwt beam="1">  1        2 0.25778349E+00 0.62770722E+02</pdfrwt>
<pdfrwt beam="2">  1        2 0.29313219E+00 0.76370442E+02</pdfrwt>
<totfact> 0.18612095E+01</totfact>
</mgrwt>
</event>
<event>
13    1  0.2101801E-008  0.3993110E+03  0.7546771E-02  0.1153670E+00
          2   -1    0    0  502    0  0.00000000000E+00  0.00000000000E+00  0.13685893738E+04  0.13685893738E+04  0.00000000000E+00 0. -1.
          2   -1    0    0  503    0 -0.00000000000E+00 -0.00000000000E+00 -0.18256343299E+04  0.18256343299E+04  0.00000000000E+00 0. -1.
         24    2    1    2    0    0  0.44791995765E+03  0.48848159292E+02 -0.93114824312E+03  0.10375049900E+04  0.79756644931E+02 0.  0.
         25    2    1    2    0    0  0.32411037001E+03  0.27311684054E+03  0.10557252789E+03  0.45432430793E+03  0.12499871035E+03 0.  0.
         24    2    1    2    0    0 -0.31011092933E+03 -0.23238267837E+03 -0.96043591841E+02  0.40847816513E+03  0.86368641033E+02 0.  0.
        -11    1    3    3    0    0  0.15554888083E+03  0.53820403957E+02 -0.31083211628E+03  0.35172246832E+03  0.00000000000E+00 0.  1.
         12    1    3    3    0    0  0.29237107683E+03 -0.49722446652E+01 -0.62031612683E+03  0.68578252165E+03  0.00000000000E+00 0. -1.
        -11    1    5    5    0    0 -0.27754081603E+03 -0.17070126110E+03 -0.65602668330E+02  0.33237258490E+03  0.00000000000E+00 0.  1.
         12    1    5    5    0    0 -0.32570113303E+02 -0.61681417268E+02 -0.30440923512E+02  0.76105580222E+02  0.00000000000E+00 0. -1.
          5    1    4    4  501    0  0.32561139478E+03  0.24986680286E+03  0.77798734012E+02  0.41776899430E+03  0.47000000000E+01 0.  1.
         -5    1    4    4    0  501 -0.15010247726E+01  0.23250037679E+02  0.27773793883E+02  0.36555313623E+02  0.47000000000E+01 0.  1.
          1    1    1    2  502    0 -0.37527956954E+03 -0.13005769594E+03  0.82788644955E+03  0.91822967331E+03  0.00000000000E+00 0. -1.
          1    1    1    2  503    0 -0.86639828794E+02  0.40475374476E+02 -0.36331209865E+03  0.37568656736E+03  0.00000000000E+00 0. -1.
<mgrwt>
<rscale>  0 0.19541062E+03</rscale>
<asrwt>0</asrwt>
<pdfrwt beam="1">  1        2 0.20126314E+00 0.39931095E+03</pdfrwt>
<pdfrwt beam="2">  1        2 0.26847564E+00 0.95628008E+02</pdfrwt>
<totfact> 0.29575811E+01</totfact>
</mgrwt>
</event>
<event>
13    1  0.2101801E-008  0.5978938E+02  0.7546771E-02  0.1533696E+00
          4   -1    0    0  503    0 -0.00000000000E+00  0.00000000000E+00  0.14314870053E+04  0.14314870053E+04  0.00000000000E+00 0. -1.
          2   -1    0    0  502    0  0.00000000000E+00 -0.00000000000E+00 -0.22859376698E+04  0.22859376698E+04  0.00000000000E+00 0. -1.
         24    2    1    2    0    0 -0.17117794361E+02 -0.49687750797E+02  0.65737884676E+03  0.66442602290E+03  0.80951221616E+02 0.  0.
         25    2    1    2    0    0  0.67793289095E+02  0.61514880836E+02  0.20787186067E+03  0.25926057744E+03  0.12500130376E+03 0.  0.
         24    2    1    2    0    0 -0.57127571038E+02  0.40925884775E+02 -0.18964095318E+04  0.18994164142E+04  0.80468099156E+02 0.  0.
        -11    1    3    3    0    0  0.63386532382E+01 -0.24484886072E+02  0.49632606477E+02  0.55705330055E+02  0.00000000000E+00 0.  1.
         12    1    3    3    0    0 -0.23456447599E+02 -0.25202864725E+02  0.60774624028E+03  0.60872069285E+03  0.00000000000E+00 0. -1.
        -11    1    5    5    0    0 -0.45241736181E+02  0.19953875902E+02 -0.43391867723E+03  0.43672690587E+03  0.00000000000E+00 0.  1.
         12    1    5    5    0    0 -0.11885834856E+02  0.20972008873E+02 -0.14624908545E+04  0.14626895083E+04  0.00000000000E+00 0. -1.
          5    1    4    4  501    0  0.47387549480E+02  0.17782092944E+02  0.20442567849E+03  0.21065073155E+03  0.47000000000E+01 0. -1.
         -5    1    4    4    0  501  0.20405739615E+02  0.43732787891E+02  0.34461821853E+01  0.48609845892E+02  0.47000000000E+01 0. -1.
          1    1    1    2  502    0 -0.22567708415E+02 -0.46808974348E+00 -0.35677961030E+03  0.35749295223E+03  0.00000000000E+00 0. -1.
          3    1    1    2  503    0  0.29019784719E+02 -0.52284925071E+02  0.53348777010E+03  0.53682870839E+03  0.00000000000E+00 0. -1.
<mgrwt>
<rscale>  0 0.36736895E+02</rscale>
<asrwt>0</asrwt>
<pdfrwt beam="2">  1        2 0.33616730E+00 0.22572562E+02</pdfrwt>
<pdfrwt beam="1">  1        4 0.21051280E+00 0.59789378E+02</pdfrwt>
<totfact> 0.54457609E-01</totfact>
</mgrwt>
</event>
<event>
13    1  0.2101801E-008  0.7176959E+02  0.7546771E-02  0.1490418E+00
          2   -1    0    0  502    0  0.00000000000E+00  0.00000000000E+00  0.80652974949E+03  0.80652974949E+03  0.00000000000E+00 0. -1.
          2   -1    0    0  503    0 -0.00000000000E+00 -0.00000000000E+00 -0.15558471621E+04  0.15558471621E+04  0.00000000000E+00 0. -1.
         24    2    1    2    0    0  0.42362050215E+03 -0.33010142754E+03 -0.86337411076E+02  0.54733102115E+03  0.60793222169E+02 0.  0.
         25    2    1    2    0    0 -0.21341847495E+03  0.29884705817E+03  0.40948091891E+03  0.56405398946E+03  0.12500108181E+03 0.  0.
         24    2    1    2    0    0 -0.11653425422E+03  0.49187915718E+02 -0.11286680868E+03  0.18054268042E+03  0.62105229210E+02 0.  0.
        -11    1    3    3    0    0  0.25169582365E+03 -0.18339365538E+03 -0.78593251685E+02  0.32118673648E+03  0.00000000000E+00 0.  1.
         12    1    3    3    0    0  0.17192467850E+03 -0.14670777215E+03 -0.77441593916E+01  0.22614428468E+03  0.00000000000E+00 0. -1.
        -13    1    5    5    0    0 -0.81110372365E+02  0.11418372527E+02 -0.95749003675E+02  0.12600453738E+03  0.00000000000E+00 0.  1.
         14    1    5    5    0    0 -0.35423881851E+02  0.37769543191E+02 -0.17117805002E+02  0.54538143040E+02  0.00000000000E+00 0. -1.
          5    1    4    4  501    0 -0.15826975869E+03  0.26202222567E+03  0.26459794389E+03  0.40464691420E+03  0.47000000000E+01 0. -1.
         -5    1    4    4    0  501 -0.55148716262E+02  0.36824832498E+02  0.14488297502E+03  0.15940707527E+03  0.47000000000E+01 0. -1.
          1    1    1    2  502    0 -0.22188235621E+02 -0.11937914914E+02  0.51226067165E+02  0.57087140142E+02  0.00000000000E+00 0. -1.
          1    1    1    2  503    0 -0.71479537364E+02 -0.59956314340E+01 -0.10108201790E+04  0.10133620804E+04  0.00000000000E+00 0. -1.
<mgrwt>
<rscale>  0 0.42524074E+02</rscale>
<asrwt>0</asrwt>
<pdfrwt beam="1">  1        2 0.11860732E+00 0.25195865E+02</pdfrwt>
<pdfrwt beam="2">  1        2 0.22880105E+00 0.71769588E+02</pdfrwt>
<totfact> 0.97349608E+01</totfact>
</mgrwt>
</event>
<event>
13    1  0.2101801E-008  0.5702321E+02  0.7546771E-02  0.1417699E+00
          2   -1    0    0  502    0  0.00000000000E+00  0.00000000000E+00  0.35656957767E+04  0.35656957767E+04  0.00000000000E+00 0. -1.
          2   -1    0    0  503    0 -0.00000000000E+00 -0.00000000000E+00 -0.77968823656E+03  0.77968823656E+03  0.00000000000E+00 0. -1.
         24    2    1    2    0    0 -0.73280408380E+02 -0.42626239477E+02 -0.34155284516E+03  0.36429793477E+03  0.94168066230E+02 0.  0.
         25    2    1    2    0    0  0.10116574610E+02  0.71804908794E+02  0.90887948778E+03  0.92029585471E+03  0.12499698752E+03 0.  0.
         24    2    1    2    0    0  0.60653779640E+02 -0.35319452782E+02  0.61320926532E+02  0.12445294832E+03  0.82473847891E+02 0.  0.
        -13    1    3    3    0    0 -0.16139447885E+02  0.21884086413E+02 -0.27649915986E+02  0.38780315499E+02  0.00000000000E+00 0.  1.
         14    1    3    3    0    0 -0.57140960494E+02 -0.64510325890E+02 -0.31390292918E+03  0.32551761927E+03  0.00000000000E+00 0. -1.
        -13    1    5    5    0    0  0.36878212064E+02  0.24203722968E+02  0.22517356836E+02  0.49526296948E+02  0.00000000000E+00 0.  1.
         14    1    5    5    0    0  0.23775567576E+02 -0.59523175750E+02  0.38803569696E+02  0.74926651374E+02  0.00000000000E+00 0. -1.
          5    1    4    4  501    0 -0.12852495136E+02  0.97461143613E+02  0.47855724006E+03  0.48857239296E+03  0.47000000000E+01 0.  1.
         -5    1    4    4    0  501  0.22969069747E+02 -0.25656234820E+02  0.43032224771E+03  0.43172346175E+03  0.47000000000E+01 0.  1.
          1    1    1    2  502    0  0.56520477153E+02  0.78806096969E+01  0.25446528202E+04  0.25452926440E+04  0.00000000000E+00 0. -1.
          1    1    1    2  503    0 -0.54010423024E+02 -0.17398262316E+01 -0.38729284917E+03  0.39104463148E+03  0.00000000000E+00 0. -1.
<mgrwt>
<rscale>  0 0.55510766E+02</rscale>
<asrwt>0</asrwt>
<pdfrwt beam="1">  1        2 0.52436702E+00 0.57023209E+02</pdfrwt>
<pdfrwt beam="2">  1        2 0.11466004E+00 0.54038438E+02</pdfrwt>
<totfact> 0.98707886E+00</totfact>
</mgrwt>
</event>
<event>
13    1  0.2101801E-008  0.1458035E+03  0.7546771E-02  0.1389407E+00
          2   -1    0    0  503    0  0.00000000000E+00  0.00000000000E+00  0.17868103470E+04  0.17868103470E+04  0.00000000000E+00 0. -1.
          2   -1    0    0  502    0 -0.00000000000E+00 -0.00000000000E+00 -0.16139435119E+04  0.16139435119E+04  0.00000000000E+00 0. -1.
         24    2    1    2    0    0 -0.69049531486E+02  0.41495723177E+03 -0.41883080007E+03  0.59923993434E+03  0.81926295071E+02 0.  0.
         25    2    1    2    0    0  0.13372025124E+02 -0.25666698881E+03  0.46336732103E+03  0.54441998406E+03  0.12500836229E+03 0.  0.
         24    2    1    2    0    0  0.51162483356E+02 -0.31776888899E+03 -0.14569983088E+03  0.36254875137E+03  0.81354101861E+02 0.  0.
        -11    1    5    5    0    0  0.40085925033E+02 -0.27866016332E+03 -0.94049773032E+02  0.29682272119E+03  0.00000000000E+00 0.  1.
         12    1    5    5    0    0  0.11076558323E+02 -0.39108725670E+02 -0.51650057846E+02  0.65726030181E+02  0.00000000000E+00 0. -1.
        -11    1    3    3    0    0 -0.84464679763E+02  0.37881244818E+03 -0.36662129208E+03  0.53389542499E+03  0.00000000000E+00 0.  1.
         12    1    3    3    0    0  0.15415148276E+02  0.36144783594E+02 -0.52209507991E+02  0.65344509349E+02  0.00000000000E+00 0. -1.
          5    1    4    4  501    0 -0.42500694662E+02 -0.16710720210E+03  0.22358589318E+03  0.28238956721E+03  0.47000000000E+01 0. -1.
         -5    1    4    4    0  501  0.55872719786E+02 -0.89559786716E+02  0.23978142785E+03  0.26203041685E+03  0.47000000000E+01 0. -1.
          1    1    1    2  502    0  0.25499846254E+02  0.14344243155E+03 -0.80354526719E+03  0.81664617170E+03  0.00000000000E+00 0. -1.
          1    1    1    2  503    0 -0.20984823247E+02  0.16036214488E+02  0.10775754121E+04  0.10778990175E+04  0.00000000000E+00 0. -1.
<mgrwt>
<rscale>  0 0.62054536E+02</rscale>
<asrwt>0</asrwt>
<pdfrwt beam="1">  1        2 0.26276623E+00 0.26410660E+02</pdfrwt>
<pdfrwt beam="2">  1        2 0.23734463E+00 0.14580345E+03</pdfrwt>
<totfact> 0.28193450E+01</totfact>
</mgrwt>
</event>
<event>
13    1  0.2101801E-008  0.5338605E+02  0.7546771E-02  0.1448732E+00
          2   -1    0    0  503    0  0.00000000000E+00  0.00000000000E+00  0.17892093679E+04  0.17892093679E+04  0.00000000000E+00 0. -1.
          2   -1    0    0  502    0 -0.00000000000E+00 -0.00000000000E+00 -0.24825931993E+04  0.24825931993E+04  0.00000000000E+00 0. -1.
         24    2    1    2    0    0 -0.13603828771E+03  0.94255715906E+02 -0.22424640760E+03  0.29030775631E+03  0.81250146753E+02 0.  0.
         25    2    1    2    0    0  0.36551681593E+02 -0.14605120621E+03  0.11801325560E+03  0.22851516447E+03  0.12500028654E+03 0.  0.
         24    2    1    2    0    0  0.59426750028E+02 -0.38435258035E+02 -0.15279925715E+03  0.18766632724E+03  0.82838576263E+02 0.  0.
        -13    1    5    5    0    0  0.70212405636E+02 -0.77332372541E+01 -0.12993933940E+03  0.14789799454E+03  0.00000000000E+00 0.  1.
         14    1    5    5    0    0 -0.10785655609E+02 -0.30702020781E+02 -0.22859917744E+02  0.39768332706E+02  0.00000000000E+00 0. -1.
        -13    1    3    3    0    0 -0.35338133524E+02  0.59403037032E+02 -0.13354514065E+03  0.15037223507E+03  0.00000000000E+00 0.  1.
         14    1    3    3    0    0 -0.10070015418E+03  0.34852678874E+02 -0.90701266955E+02  0.13993552124E+03  0.00000000000E+00 0. -1.
          5    1    4    4  501    0  0.41531592234E+02 -0.16361481368E+03  0.81686855758E+02  0.18758867986E+03  0.47000000000E+01 0.  1.
         -5    1    4    4    0  501 -0.49799106413E+01  0.17563607468E+02  0.36326399841E+02  0.40926484612E+02  0.47000000000E+01 0.  1.
          1    1    1    2  502    0  0.18321820814E+02  0.50067298091E+02 -0.19991438354E+04  0.19998546192E+04  0.00000000000E+00 0. -1.
          1    1    1    2  503    0  0.21738035270E+02  0.40163450248E+02  0.15647924132E+04  0.15654587000E+04  0.00000000000E+00 0. -1.
<mgrwt>
<rscale>  0 0.49376919E+02</rscale>
<asrwt>0</asrwt>
<pdfrwt beam="1">  1        2 0.26311902E+00 0.45668862E+02</pdfrwt>
<pdfrwt beam="2">  1        2 0.36508723E+00 0.53386051E+02</pdfrwt>
<totfact> 0.11278922E+01</totfact>
</mgrwt>
</event>
<event>
13    1  0.2101801E-008  0.1336579E+03  0.7546771E-02  0.1345519E+00
          2   -1    0    0  503    0  0.00000000000E+00  0.00000000000E+00  0.20563048473E+04  0.20563048473E+04  0.00000000000E+00 0. -1.
          2   -1    0    0  502    0 -0.00000000000E+00 -0.00000000000E+00 -0.76316903098E+03  0.76316903098E+03  0.00000000000E+00 0. -1.
         24    2    1    2    0    0  0.71088014440E+02 -0.14030746890E+02 -0.59329164681E+01  0.10849246986E+03  0.80529801087E+02 0.  0.
         25    2    1    2    0    0 -0.19692546042E+03  0.10718205054E+03 -0.55850401010E+02  0.26268628138E+03  0.12496874094E+03 0.  0.
         24    2    1    2    0    0 -0.23804389271E+02 -0.15082570770E+02 -0.11193937663E+03  0.14101691458E+03  0.81001316460E+02 0.  0.
        -13    1    3    3    0    0 -0.10400875321E+02  0.13307103416E+02  0.11962732370E+02  0.20696960514E+02  0.00000000000E+00 0.  1.
         14    1    3    3    0    0  0.81488889761E+02 -0.27337850306E+02 -0.17895648838E+02  0.87795509345E+02  0.00000000000E+00 0. -1.
        -13    1    5    5    0    0 -0.47453667646E+02 -0.15103106654E+02 -0.35914797140E+02  0.61398917395E+02  0.00000000000E+00 0.  1.
         14    1    5    5    0    0  0.23649278375E+02  0.20535884073E-01 -0.76024579492E+02  0.79617997188E+02  0.00000000000E+00 0. -1.
          5    1    4    4  501    0 -0.85136672364E+02 -0.18375632690E+02 -0.31590589950E+02  0.92768379480E+02  0.47000000000E+01 0.  1.
         -5    1    4    4    0  501 -0.11178878806E+03  0.12555768323E+03 -0.24259811060E+02  0.16991790190E+03  0.47000000000E+01 0.  1.
          1    1    1    2  502    0  0.18989160866E+03 -0.88148628713E+02 -0.39388854425E+03  0.44606859234E+03  0.00000000000E+00 0. -1.
          1    1    1    2  503    0 -0.40249773407E+02  0.10079895837E+02  0.18607470547E+04  0.18612096201E+04  0.00000000000E+00 0. -1.
<mgrwt>
<rscale>  0 0.74470365E+02</rscale>
<asrwt>0</asrwt>
<pdfrwt beam="1">  1        2 0.30239777E+00 0.41492753E+02</pdfrwt>
<pdfrwt beam="2">  1        2 0.11223074E+00 0.13365792E+03</pdfrwt>
<totfact> 0.60379347E+01</totfact>
</mgrwt>
</event>
<event>
13    1  0.2101801E-008  0.1800714E+03  0.7546771E-02  0.1220091E+00
          2   -1    0    0  502    0  0.00000000000E+00  0.00000000000E+00  0.34685893568E+04  0.34685893568E+04  0.00000000000E+00 0. -1.
          2   -1    0    0  503    0 -0.00000000000E+00 -0.00000000000E+00 -0.57984378966E+03  0.57984378966E+03  0.00000000000E+00 0. -1.
         24    2    1    2    0    0  0.82093811021E+02  0.15828706150E+02 -0.14225006151E+03  0.18297996929E+03  0.79098972289E+02 0.  0.
         25    2    1    2    0    0  0.17101292161E+03 -0.18432508347E+02  0.17221196477E+03  0.27362069077E+03  0.12500457945E+03 0.  0.
         24    2    1    2    0    0  0.11658498509E+03  0.10440616250E+03  0.73405108780E+03  0.75476581245E+03  0.79672621580E+02 0.  0.
        -13    1    3    3    0    0  0.42767436802E+00  0.27390180686E+02 -0.62544074276E+02  0.68280056608E+02  0.00000000000E+00 0.  1.
         14    1    3    3    0    0  0.81666136653E+02 -0.11561474536E+02 -0.79705987231E+02  0.11469991268E+03  0.00000000000E+00 0. -1.
        -13    1    5    5    0    0  0.84431565361E+02  0.51397370366E+02  0.58567773746E+03  0.59396026051E+03  0.00000000000E+00 0.  1.
         14    1    5    5    0    0  0.32153419731E+02  0.53008792138E+02  0.14837335034E+03  0.16080555195E+03  0.00000000000E+00 0. -1.
          5    1    4    4  501    0  0.15134757376E+03 -0.25849792760E+02  0.69371092123E+02  0.16854891958E+03  0.47000000000E+01 0. -1.
         -5    1    4    4    0  501  0.19665347851E+02  0.74172844130E+01  0.10284087264E+03  0.10507177119E+03  0.47000000000E+01 0. -1.
          1    1    1    2  502    0 -0.27066939141E+03 -0.17237112442E+03  0.24597871278E+04  0.24806302502E+04  0.00000000000E+00 0. -1.
          1    1    1    2  503    0 -0.99022326316E+02  0.70568764110E+02 -0.33505455171E+03  0.35643642379E+03  0.00000000000E+00 0. -1.
<mgrwt>
<rscale>  0 0.13509085E+03</rscale>
<asrwt>0</asrwt>
<pdfrwt beam="1">  1        2 0.51008666E+00 0.18007143E+03</pdfrwt>
<pdfrwt beam="2">  1        2 0.85271148E-01 0.10134611E+03</pdfrwt>
<totfact> 0.12581485E+01</totfact>
</mgrwt>
</event>
<event>
13    1  0.2101801E-008  0.8520270E+02  0.7546771E-02  0.1334677E+00
          2   -1    0    0  502    0  0.00000000000E+00  0.00000000000E+00  0.94708721441E+03  0.94708721441E+03  0.00000000000E+00 0. -1.
          2   -1    0    0  503    0 -0.00000000000E+00 -0.00000000000E+00 -0.19937893837E+04  0.19937893837E+04  0.00000000000E+00 0. -1.
         24    2    1    2    0    0 -0.56380737258E+01 -0.14540172167E+02 -0.85414573700E+03  0.85808922869E+03  0.80678249091E+02 0.  0.
         25    2    1    2    0    0  0.17536565508E+02 -0.53720564527E+02 -0.93740960052E+02  0.16615121336E+03  0.12500171169E+03 0.  0.
         24    2    1    2    0    0  0.72682042483E+01 -0.53190023438E+02 -0.38836432799E+03  0.40008962372E+03  0.79767476889E+02 0.  0.
        -11    1    5    5    0    0  0.38574616475E+02 -0.55453139325E+01 -0.16947059110E+03  0.17389373994E+03  0.00000000000E+00 0.  1.
         12    1    5    5    0    0 -0.31306412226E+02 -0.47644709506E+02 -0.21889373689E+03  0.22619588378E+03  0.00000000000E+00 0. -1.
        -11    1    3    3    0    0  0.33337257108E+02 -0.58949445793E+01 -0.21035511725E+03  0.21306195915E+03  0.00000000000E+00 0.  1.
         12    1    3    3    0    0 -0.38975330834E+02 -0.86452275881E+01 -0.64379061975E+03  0.64502726954E+03  0.00000000000E+00 0. -1.
          5    1    4    4  501    0  0.71610250185E+02 -0.33513225449E+02 -0.51695668468E+02  0.94581691410E+02  0.47000000000E+01 0. -1.
         -5    1    4    4    0  501 -0.54073684677E+02 -0.20207339078E+02 -0.42045291584E+02  0.71569521945E+02  0.47000000000E+01 0. -1.
          1    1    1    2  502    0  0.36721035226E+02  0.76857333108E+02  0.89894442705E+03  0.90297096687E+03  0.00000000000E+00 0. -1.
          1    1    1    2  503    0 -0.55887731256E+02  0.44593427024E+02 -0.60939557126E+03  0.61357556544E+03  0.00000000000E+00 0. -1.
<mgrwt>
<rscale>  0 0.78050314E+02</rscale>
<asrwt>0</asrwt>
<pdfrwt beam="1">  1        2 0.13927753E+00 0.85202702E+02</pdfrwt>
<pdfrwt beam="2">  1        2 0.29320432E+00 0.71498337E+02</pdfrwt>
<totfact> 0.47275478E+01</totfact>
</mgrwt>
</event>
<event>
13    1  0.2101801E-008  0.1318411E+03  0.7546771E-02  0.1292508E+00
          2   -1    0    0  502    0  0.00000000000E+00  0.00000000000E+00  0.68585407007E+03  0.68585407007E+03  0.00000000000E+00 0. -1.
          2   -1    0    0  503    0 -0.00000000000E+00 -0.00000000000E+00 -0.93844961003E+03  0.93844961003E+03  0.00000000000E+00 0. -1.
         24    2    1    2    0    0 -0.23940744092E+02 -0.89060709143E+02 -0.56726226808E+03  0.58030022415E+03  0.80354839395E+02 0.  0.
         25    2    1    2    0    0 -0.22818591566E+03  0.12825514366E+03  0.14126027066E+03  0.32264464897E+03  0.12500764562E+03 0.  0.
         24    2    1    2    0    0  0.12463294794E+02  0.26015541421E+02  0.44261853941E+02  0.95838531421E+02  0.79961054758E+02 0.  0.
        -13    1    3    3    0    0 -0.28878586876E+02 -0.10195192072E+03 -0.45410912203E+03  0.46630811877E+03  0.00000000000E+00 0.  1.
         14    1    3    3    0    0  0.49378427842E+01  0.12891211574E+02 -0.11315314605E+03  0.11399210538E+03  0.00000000000E+00 0. -1.
        -13    1    5    5    0    0  0.38798443195E+02  0.24353362738E+02  0.51052447202E+02  0.68591237314E+02  0.00000000000E+00 0.  1.
         14    1    5    5    0    0 -0.26335148401E+02  0.16621786827E+01 -0.67905932605E+01  0.27247294106E+02  0.00000000000E+00 0. -1.
          5    1    4    4  501    0 -0.49824523922E+01  0.86750489003E+01 -0.19680987290E+02  0.22572385031E+02  0.47000000000E+01 0. -1.
         -5    1    4    4    0  501 -0.22320346327E+03  0.11958009476E+03  0.16094125795E+03  0.30007226394E+03  0.47000000000E+01 0. -1.
          1    1    1    2  502    0  0.17455751969E+03 -0.46988482748E+02  0.35033711896E+03  0.39422625751E+03  0.00000000000E+00 0. -1.
          1    1    1    2  503    0  0.65105845265E+02 -0.18221493194E+02 -0.22119251543E+03  0.23129401804E+03  0.00000000000E+00 0. -1.
<mgrwt>
<rscale>  0 0.94411154E+02</rscale>
<asrwt>0</asrwt>
<pdfrwt beam="1">  1        2 0.10086089E+00 0.13184109E+03</pdfrwt>
<pdfrwt beam="2">  1        2 0.13800729E+00 0.67607647E+02</pdfrwt>
<totfact> 0.23410899E+02</totfact>
</mgrwt>
</event>
<event>
13    1  0.2101801E-008  0.7771604E+02  0.7546771E-02  0.1365524E+00
          2   -1    0    0  503    0  0.00000000000E+00  0.00000000000E+00  0.14940666199E+04  0.14940666199E+04  0.00000000000E+00 0. -1.
          2   -1    0    0  502    0 -0.00000000000E+00 -0.00000000000E+00 -0.18352474464E+04  0.18352474464E+04  0.00000000000E+00 0. -1.
         24    2    1    2    0    0  0.13434319766E+03  0.15225876738E+03  0.96262274308E+02  0.23858871893E+03  0.80170595262E+02 0.  0.
         25    2    1    2    0    0 -0.52463901152E+02 -0.43292973650E+03 -0.42345912260E+03  0.62058252782E+03  0.12499771057E+03 0.  0.
         24    2    1    2    0    0  0.12491841637E+02  0.24263416068E+03 -0.38104203808E+03  0.45991084115E+03  0.85425786444E+02 0.  0.
        -13    1    5    5    0    0 -0.43056577206E+01  0.23302813970E+03 -0.32003025320E+03  0.39590404840E+03  0.00000000000E+00 0.  1.
         14    1    5    5    0    0  0.16797499357E+02  0.96060209819E+01 -0.61011784880E+02  0.64006792749E+02  0.00000000000E+00 0. -1.
        -13    1    3    3    0    0  0.27340518690E+02 -0.31464705033E+01  0.17920100982E+01  0.27579259218E+02  0.00000000000E+00 0.  1.
         14    1    3    3    0    0  0.10700267897E+03  0.15540523788E+03  0.94470264210E+02  0.21100945971E+03  0.00000000000E+00 0. -1.
          5    1    4    4  501    0  0.10181242289E+01 -0.75816788759E+02 -0.18887972328E+02  0.78281974511E+02  0.47000000000E+01 0.  1.
         -5    1    4    4    0  501 -0.53482025381E+02 -0.35711294774E+03 -0.40457115027E+03  0.54230055331E+03  0.47000000000E+01 0.  1.
          1    1    1    2  502    0 -0.53362008211E+02 -0.27972063880E+02 -0.81920938588E+03  0.82142191241E+03  0.00000000000E+00 0. -1.
          1    1    1    2  503    0 -0.41009129931E+02  0.66008872330E+02  0.11862674458E+04  0.11888100659E+04  0.00000000000E+00 0. -1.
<mgrwt>
<rscale>  0 0.68427424E+02</rscale>
<asrwt>0</asrwt>
<pdfrwt beam="1">  1        2 0.21971568E+00 0.77716036E+02</pdfrwt>
<pdfrwt beam="2">  1        2 0.26988933E+00 0.60248986E+02</pdfrwt>
<totfact> 0.29599162E+01</totfact>
</mgrwt>
</event>
<event>
13    1  0.2101801E-008  0.1315470E+03  0.7546771E-02  0.1308919E+00
          2   -1    0    0  503    0  0.00000000000E+00  0.00000000000E+00  0.88241050266E+03  0.88241050266E+03  0.00000000000E+00 0. -1.
          2   -1    0    0  502    0 -0.00000000000E+00 -0.00000000000E+00 -0.15314352124E+04  0.15314352124E+04  0.00000000000E+00 0. -1.
         24    2    1    2    0    0 -0.23700802142E+03 -0.27161520314E+03  0.15200188337E+03  0.39923564719E+03  0.79604702413E+02 0.  0.
         25    2    1    2    0    0  0.19487814552E+03  0.20700315642E+03 -0.80847968071E+02  0.32091601924E+03  0.12499159609E+03 0.  0.
         24    2    1    2    0    0 -0.57578921545E+02  0.16340792925E+03  0.22426973509E+03  0.30072756547E+03  0.10061148548E+03 0.  0.
        -13    1    5    5    0    0 -0.53185258272E+02  0.69356371745E+02  0.45161771896E+02  0.98379691196E+02  0.00000000000E+00 0.  1.
         14    1    5    5    0    0 -0.43936632734E+01  0.94051557510E+02  0.17910796319E+03  0.20234787428E+03  0.00000000000E+00 0. -1.
        -13    1    3    3    0    0 -0.14372384701E+03 -0.10931981280E+03  0.91995668789E+02  0.20265874949E+03  0.00000000000E+00 0.  1.
         14    1    3    3    0    0 -0.93284174414E+02 -0.16229539034E+03  0.60006214582E+02  0.19657689770E+03  0.00000000000E+00 0. -1.
          5    1    4    4  501    0  0.17635144952E+03  0.21156470102E+03 -0.43727323951E+02  0.27891508623E+03  0.47000000000E+01 0. -1.
         -5    1    4    4    0  501  0.18526695998E+02 -0.45615445994E+01 -0.37120644120E+02  0.42000933009E+02  0.47000000000E+01 0. -1.
          1    1    1    2  502    0  0.46716914888E+02 -0.12299455715E+03 -0.11611453738E+04  0.11685755048E+04  0.00000000000E+00 0. -1.
          1    1    1    2  503    0  0.52991882555E+02  0.24198674607E+02  0.21669701365E+03  0.22439097842E+03  0.00000000000E+00 0. -1.
<mgrwt>
<rscale>  0 0.87540567E+02</rscale>
<asrwt>0</asrwt>
<pdfrwt beam="1">  1        2 0.12976625E+00 0.58255605E+02</pdfrwt>
<pdfrwt beam="2">  1        2 0.22521106E+00 0.13154702E+03</pdfrwt>
<totfact> 0.83085004E+01</totfact>
</mgrwt>
</event>
<event>
13    1  0.2101801E-008  0.8352559E+02  0.7546771E-02  0.1330984E+00
          2   -1    0    0  503    0  0.00000000000E+00  0.00000000000E+00  0.61508789615E+03  0.61508789615E+03  0.00000000000E+00 0. -1.
          2   -1    0    0  502    0 -0.00000000000E+00 -0.00000000000E+00 -0.45558652847E+04  0.45558652847E+04  0.00000000000E+00 0. -1.
         24    2    1    2    0    0  0.96010915037E+01 -0.32445988207E+02 -0.10817749793E+04  0.10853116071E+04  0.80741907748E+02 0.  0.
         25    2    1    2    0    0 -0.56561193465E+02 -0.28217294568E+02 -0.27374122620E+03  0.30749263327E+03  0.12498830454E+03 0.  0.
         24    2    1    2    0    0 -0.31596421630E+02  0.46972396696E+01  0.11785754404E+03  0.14754166498E+03  0.82811498577E+02 0.  0.
        -13    1    5    5    0    0  0.27641917822E+02 -0.38396623988E+01  0.27651336301E+02  0.39286321124E+02  0.00000000000E+00 0.  1.
         14    1    5    5    0    0 -0.59238339452E+02  0.85369020685E+01  0.90206207739E+02  0.10825534385E+03  0.00000000000E+00 0. -1.
        -13    1    3    3    0    0  0.11914961460E+02  0.75098951308E+01 -0.84928966917E+03  0.84940644393E+03  0.00000000000E+00 0.  1.
         14    1    3    3    0    0 -0.23138699561E+01 -0.39955883338E+02 -0.23248531011E+03  0.23590516320E+03  0.00000000000E+00 0. -1.
          5    1    4    4  501    0 -0.63514907905E+02 -0.69309057061E+02 -0.15258215864E+03  0.17927993209E+03  0.47000000000E+01 0. -1.
         -5    1    4    4    0  501  0.69537144396E+01  0.41091762493E+02 -0.12115906757E+03  0.12821270118E+03  0.47000000000E+01 0. -1.
          1    1    1    2  502    0 -0.25654715078E+02  0.92105741896E+02 -0.31595709908E+04  0.31610173170E+04  0.00000000000E+00 0. -1.
          1    1    1    2  503    0  0.10421123867E+03 -0.36139698791E+02  0.45645226371E+03  0.46958995852E+03  0.00000000000E+00 0. -1.
<mgrwt>
<rscale>  0 0.79322791E+02</rscale>
<asrwt>0</asrwt>
<pdfrwt beam="1">  1        2 0.90454103E-01 0.83525593E+02</pdfrwt>
<pdfrwt beam="2">  1        2 0.66998019E+00 0.75331463E+02</pdfrwt>
<totfact> 0.25507396E+00</totfact>
</mgrwt>
</event>
<event>
13    1  0.2101801E-008  0.4232775E+02  0.7546771E-02  0.1563160E+00
          2   -1    0    0  503    0  0.00000000000E+00  0.00000000000E+00  0.25093052677E+04  0.25093052677E+04  0.00000000000E+00 0. -1.
          2   -1    0    0  502    0 -0.00000000000E+00 -0.00000000000E+00 -0.42789258479E+04  0.42789258479E+04  0.00000000000E+00 0. -1.
         24    2    1    2    0    0 -0.79298121338E+03  0.34139810426E+03 -0.59210553147E+03  0.10483126427E+04  0.54759163481E+02 0.  0.
         25    2    1    2    0    0  0.28727781062E+02  0.20935541477E+03  0.35955855106E+03  0.43538834196E+03  0.12500272628E+03 0.  0.
         24    2    1    2    0    0  0.74889198017E+03 -0.56362868153E+03 -0.71285803799E+03  0.11803636377E+04  0.81087892571E+02 0.  0.
        -11    1    3    3    0    0 -0.22723458810E+03  0.12047032802E+03 -0.19317473754E+03  0.32165997138E+03  0.00000000000E+00 0.  1.
         12    1    3    3    0    0 -0.56574662528E+03  0.22092777624E+03 -0.39893079393E+03  0.72665267128E+03  0.00000000000E+00 0. -1.
        -13    1    5    5    0    0  0.34898367288E+03 -0.23522892262E+03 -0.36240395415E+03  0.55539074169E+03  0.00000000000E+00 0.  1.
         14    1    5    5    0    0  0.39990830729E+03 -0.32839975891E+03 -0.35045408384E+03  0.62497289603E+03  0.00000000000E+00 0. -1.
          5    1    4    4  501    0 -0.42752942858E+02  0.74564864681E+02  0.83424379214E+02  0.11987264165E+03  0.47000000000E+01 0.  1.
         -5    1    4    4    0  501  0.71480723920E+02  0.13479055009E+03  0.27613417184E+03  0.31551570031E+03  0.47000000000E+01 0.  1.
          1    1    1    2  502    0  0.15867673761E+02  0.39246594707E+02 -0.24739045191E+04  0.24742666889E+04  0.00000000000E+00 0. -1.
          1    1    1    2  503    0 -0.50622161021E+00 -0.26371432210E+02  0.16496889573E+04  0.16498998044E+04  0.00000000000E+00 0. -1.
<mgrwt>
<rscale>  0 0.33413308E+02</rscale>
<asrwt>0</asrwt>
<pdfrwt beam="1">  1        2 0.36901548E+00 0.26376290E+02</pdfrwt>
<pdfrwt beam="2">  1        2 0.62925380E+00 0.42327755E+02</pdfrwt>
<totfact> 0.56202470E-01</totfact>
</mgrwt>
</event>
<event>
13    1  0.2101801E-008  0.1781421E+03  0.7546771E-02  0.1327470E+00
         -1   -1    0    0    0  501 -0.00000000000E+00  0.00000000000E+00  0.11109055788E+04  0.11109055788E+04  0.00000000000E+00 0.  1.
          2   -1    0    0  503    0  0.00000000000E+00 -0.00000000000E+00 -0.19792965741E+04  0.19792965741E+04  0.00000000000E+00 0. -1.
         24    2    1    2    0    0  0.81490303379E+02 -0.61329167882E+02  0.89596684195E+03  0.90529191357E+03  0.79968309535E+02 0.  0.
         25    2    1    2    0    0  0.65011808754E+02 -0.48171227182E+02 -0.40709411117E+02  0.15436960141E+03  0.12500286108E+03 0.  0.
         24    2    1    2    0    0 -0.25416510552E+03  0.70464571446E+01 -0.14132010120E+04  0.14381605966E+04  0.80741860711E+02 0.  0.
        -11    1    5    5    0    0 -0.25224197162E+03  0.28330477382E+01 -0.14103278240E+04  0.14327102323E+04  0.00000000000E+00 0.  1.
         12    1    5    5    0    0 -0.19231339016E+01  0.42134094064E+01 -0.28731879320E+01  0.54503643660E+01  0.00000000000E+00 0. -1.
        -11    1    3    3    0    0  0.46826882567E+02 -0.78082802902E+02  0.61746618207E+03  0.62414274573E+03  0.00000000000E+00 0.  1.
         12    1    3    3    0    0  0.34663420812E+02  0.16753635020E+02  0.27850065987E+03  0.28114916784E+03  0.00000000000E+00 0. -1.
          5    1    4    4  502    0 -0.15113850742E+02 -0.64809096842E+02 -0.22458891660E+02  0.70392750566E+02  0.47000000000E+01 0. -1.
         -5    1    4    4    0  502  0.80125659496E+02  0.16637869659E+02 -0.18250519457E+02  0.83976850840E+02  0.47000000000E+01 0. -1.
          1    1    1    2  503    0  0.12021333767E+03  0.13665503339E+03 -0.43024897636E+03  0.46716167048E+03  0.00000000000E+00 0. -1.
         -2    1    1    2    0  501 -0.12550344282E+02 -0.34201095466E+02  0.11980156223E+03  0.12521837080E+03  0.00000000000E+00 0.  1.
<mgrwt>
<rscale>  0 0.80560008E+02</rscale>
<asrwt>0</asrwt>
<pdfrwt beam="2">  1        2 0.29107302E+00 0.17814209E+03</pdfrwt>
<pdfrwt beam="1">  1       -1 0.16336847E+00 0.36431114E+02</pdfrwt>
<totfact> 0.35515076E+00</totfact>
</mgrwt>
</event>
<event>
13    1  0.2101801E-008  0.1543258E+03  0.7546771E-02  0.1246583E+00
          2   -1    0    0  503    0  0.00000000000E+00  0.00000000000E+00  0.70058532319E+03  0.70058532319E+03  0.00000000000E+00 0. -1.
          2   -1    0    0  502    0 -0.00000000000E+00 -0.00000000000E+00 -0.16914058133E+04  0.16914058133E+04  0.00000000000E+00 0. -1.
         24    2    1    2    0    0 -0.22519486233E+02 -0.55195012200E+02 -0.53046134415E+03  0.53982806859E+03  0.80445567757E+02 0.  0.
         25    2    1    2    0    0 -0.29508342066E+03  0.48877210028E+02 -0.32837181773E+03  0.46143062544E+03  0.12500785819E+03 0.  0.
         24    2    1    2    0    0 -0.21095835391E+02 -0.32346718062E+02  0.10452544636E+02  0.86879539818E+02  0.77119740076E+02 0.  0.
        -11    1    3    3    0    0  0.77613110129E+01 -0.65228236932E+02 -0.29563023966E+03  0.30284022098E+03  0.00000000000E+00 0.  1.
         12    1    3    3    0    0 -0.30280797246E+02  0.10033224732E+02 -0.23483110448E+03  0.23698784761E+03  0.00000000000E+00 0. -1.
        -13    1    5    5    0    0  0.93206236918E+01 -0.50082191271E+02  0.82021551278E+01  0.51598209826E+02  0.00000000000E+00 0.  1.
         14    1    5    5    0    0 -0.30416459083E+02  0.17735473209E+02  0.22503895086E+01  0.35281329993E+02  0.00000000000E+00 0. -1.
          5    1    4    4  501    0 -0.10774699905E+03 -0.35846545163E+02 -0.15647987617E+03  0.19339708439E+03  0.47000000000E+01 0.  1.
         -5    1    4    4    0  501 -0.18733642161E+03  0.84723755191E+02 -0.17189194155E+03  0.26803354105E+03  0.47000000000E+01 0.  1.
          1    1    1    2  502    0  0.23106104468E+03 -0.18425569002E+02 -0.69779638242E+03  0.73528803830E+03  0.00000000000E+00 0. -1.
          1    1    1    2  503    0  0.10763769761E+03  0.57090089236E+02  0.55535650956E+03  0.56856486432E+03  0.00000000000E+00 0. -1.
<mgrwt>
<rscale>  0 0.11791116E+03</rscale>
<asrwt>0</asrwt>
<pdfrwt beam="1">  1        2 0.10302725E+00 0.90088873E+02</pdfrwt>
<pdfrwt beam="2">  1        2 0.24873615E+00 0.15432585E+03</pdfrwt>
<totfact> 0.88417463E+01</totfact>
</mgrwt>
</event>
<event>
13    1  0.2101801E-008  0.6797265E+02  0.7546771E-02  0.1367338E+00
          4   -1    0    0  503    0 -0.00000000000E+00  0.00000000000E+00  0.30991331703E+03  0.30991331703E+03  0.00000000000E+00 0. -1.
          2   -1    0    0  502    0  0.00000000000E+00 -0.00000000000E+00 -0.18284510081E+04  0.18284510081E+04  0.00000000000E+00 0. -1.
         24    2    1    2    0    0  0.11498189295E+02 -0.29911915444E+02 -0.14939355137E+03  0.17896875699E+03  0.93190405872E+02 0.  0.
         25    2    1    2    0    0  0.16612682604E+03  0.96853102825E+02 -0.79545067046E+03  0.82785727755E+03  0.12500902769E+03 0.  0.
         24    2    1    2    0    0 -0.76738751922E+02 -0.58365171921E+02  0.21201381496E+02  0.12697408726E+03  0.79859820426E+02 0.  0.
        -11    1    3    3    0    0 -0.37598597749E+02 -0.25178727471E+02 -0.46607838936E+02  0.64960861448E+02  0.00000000000E+00 0.  1.
         12    1    3    3    0    0  0.49096787044E+02 -0.47331879728E+01 -0.10278571243E+03  0.11400789554E+03  0.00000000000E+00 0. -1.
        -13    1    5    5    0    0 -0.70557981446E+02 -0.53784773079E+01  0.38114511216E+01  0.70865251876E+02  0.00000000000E+00 0.  1.
         14    1    5    5    0    0 -0.61807704758E+01 -0.52986694613E+02  0.17389930375E+02  0.56108835384E+02  0.00000000000E+00 0. -1.
          5    1    4    4  501    0  0.11275219144E+03  0.11481596523E+03 -0.68647911584E+03  0.70510384273E+03  0.47000000000E+01 0. -1.
         -5    1    4    4    0  501  0.53374634597E+02 -0.17962862409E+02 -0.10897155462E+03  0.12275343482E+03  0.47000000000E+01 0. -1.
          1    1    1    2  502    0 -0.46621705995E+02 -0.49311859515E+02 -0.79262035527E+03  0.79552012580E+03  0.00000000000E+00 0. -1.
          3    1    1    2  503    0 -0.54264557416E+02  0.40735844055E+02  0.19772550456E+03  0.20904407749E+03  0.00000000000E+00 0. -1.
<mgrwt>
<rscale>  0 0.67912880E+02</rscale>
<asrwt>0</asrwt>
<pdfrwt beam="2">  1        2 0.26888984E+00 0.67972654E+02</pdfrwt>
<pdfrwt beam="1">  1        4 0.45575490E-01 0.67853159E+02</pdfrwt>
<totfact> 0.26096344E+01</totfact>
</mgrwt>
</event>
<event>
13    1  0.2101801E-008  0.1486869E+03  0.7546771E-02  0.1296325E+00
          2   -1    0    0  503    0  0.00000000000E+00  0.00000000000E+00  0.45548471100E+04  0.45548471100E+04  0.00000000000E+00 0. -1.
          2   -1    0    0  502    0 -0.00000000000E+00 -0.00000000000E+00 -0.24889172585E+04  0.24889172585E+04  0.00000000000E+00 0. -1.
         24    2    1    2    0    0 -0.15515685947E+03  0.13210421575E+03 -0.85188362298E+03  0.88140748955E+03  0.98225662049E+02 0.  0.
         25    2    1    2    0    0 -0.21993472482E+03 -0.31589140664E+03  0.40783266296E+02  0.40675181615E+03  0.12500040464E+03 0.  0.
         24    2    1    2    0    0  0.17554549099E+03  0.21708792809E+03  0.77690459338E+02  0.30070342521E+03  0.80270508465E+02 0.  0.
        -11    1    5    5    0    0  0.89292931667E+01  0.30829981680E+02  0.34448074399E+02  0.47083860044E+02  0.00000000000E+00 0.  1.
         12    1    5    5    0    0  0.16661619782E+03  0.18625794641E+03  0.43242384939E+02  0.25361956516E+03  0.00000000000E+00 0. -1.
        -11    1    3    3    0    0 -0.10542303800E+03  0.65709570886E+02 -0.32313130084E+03  0.34618723580E+03  0.00000000000E+00 0.  1.
         12    1    3    3    0    0 -0.49733821470E+02  0.66394644866E+02 -0.52875232213E+03  0.53522025375E+03  0.00000000000E+00 0. -1.
          5    1    4    4  501    0 -0.21910145451E+03 -0.24541536532E+03  0.57878568950E+02  0.33407509283E+03  0.47000000000E+01 0. -1.
         -5    1    4    4    0  501 -0.83327030700E+00 -0.70476041322E+02 -0.17095302654E+02  0.72676723321E+02  0.47000000000E+01 0. -1.
          1    1    1    2  502    0  0.51042783319E+02 -0.27240985094E+02 -0.13258117377E+04  0.13270735476E+04  0.00000000000E+00 0. -1.
          1    1    1    2  503    0  0.14850330998E+03 -0.60597521114E+01  0.41251514865E+04  0.41278280900E+04  0.00000000000E+00 0. -1.
<mgrwt>
<rscale>  0 0.92750112E+02</rscale>
<asrwt>0</asrwt>
<pdfrwt beam="1">  1        2 0.66983046E+00 0.14868689E+03</pdfrwt>
<pdfrwt beam="2">  1        2 0.36601724E+00 0.57857039E+02</pdfrwt>
<totfact> 0.23381693E-01</totfact>
</mgrwt>
</event>
<event>
13    1  0.2101801E-008  0.1539057E+03  0.7546771E-02  0.1238718E+00
          2   -1    0    0  502    0  0.00000000000E+00  0.00000000000E+00  0.16527508508E+04  0.16527508508E+04  0.00000000000E+00 0. -1.
          2   -1    0    0  503    0 -0.00000000000E+00 -0.00000000000E+00 -0.57516386730E+03  0.57516386730E+03  0.00000000000E+00 0. -1.
         24    2    1    2    0    0  0.81518929506E+02  0.28574509661E+02 -0.12649190836E+03  0.17250774856E+03  0.79352895111E+02 0.  0.
         25    2    1    2    0    0 -0.19109927073E+03 -0.33675028477E+02  0.37254471372E+03  0.43825572155E+03  0.12500229972E+03 0.  0.
         24    2    1    2    0    0 -0.13522387765E+02  0.90319718011E+02  0.25001975932E+02  0.12416521611E+03  0.80320580543E+02 0.  0.
        -11    1    5    5    0    0 -0.31487522562E+02  0.81812837505E+02 -0.54140057701E+01  0.87830039942E+02  0.00000000000E+00 0.  1.
         12    1    5    5    0    0  0.17965134797E+02  0.85068805054E+01  0.30415981702E+02  0.36335176168E+02  0.00000000000E+00 0. -1.
        -13    1    3    3    0    0  0.94508379161E+02  0.21252690661E+02 -0.86654326649E+02  0.12997108493E+03  0.00000000000E+00 0.  1.
         14    1    3    3    0    0 -0.12989449655E+02  0.73218189998E+01 -0.39837581715E+02  0.42536663629E+02  0.00000000000E+00 0. -1.
          5    1    4    4  501    0 -0.58003993110E+02 -0.13931989805E+01  0.22612666677E+02  0.62448594174E+02  0.47000000000E+01 0.  1.
         -5    1    4    4    0  501 -0.13309527762E+03 -0.32281829496E+02  0.34993204705E+03  0.37580712738E+03  0.47000000000E+01 0.  1.
          1    1    1    2  502    0 -0.14754754513E+02 -0.96692366717E+02  0.11336286017E+04  0.11378404647E+04  0.00000000000E+00 0. -1.
          1    1    1    2  503    0  0.13785748350E+03  0.11473167522E+02 -0.32709639948E+03  0.35514556717E+03  0.00000000000E+00 0. -1.
<mgrwt>
<rscale>  0 0.12269380E+03</rscale>
<asrwt>0</asrwt>
<pdfrwt beam="1">  1        2 0.24305160E+00 0.97811638E+02</pdfrwt>
<pdfrwt beam="2">  1        2 0.84582922E-01 0.15390570E+03</pdfrwt>
<totfact> 0.11860953E+02</totfact>
</mgrwt>
</event>
<event>
13    1  0.2101801E-008  0.9219457E+02  0.7546771E-02  0.1391429E+00
          2   -1    0    0  502    0  0.00000000000E+00  0.00000000000E+00  0.18726623145E+04  0.18726623145E+04  0.00000000000E+00 0. -1.
          2   -1    0    0  503    0 -0.00000000000E+00 -0.00000000000E+00 -0.14654688746E+03  0.14654688746E+03  0.00000000000E+00 0. -1.
         24    2    1    2    0    0  0.94789299476E+02 -0.11924645924E+03  0.56222810841E+03  0.58787017587E+03  0.79285360908E+02 0.  0.
         25    2    1    2    0    0  0.15489966905E+03  0.28339582698E+03  0.64455452135E+03  0.73170072617E+03  0.12501327717E+03 0.  0.
         24    2    1    2    0    0 -0.14659186688E+03 -0.13262074338E+03  0.17086459905E+03  0.27342367869E+03  0.80550355970E+02 0.  0.
        -11    1    3    3    0    0 -0.42410759906E+01  0.79101048131E+01  0.15826350991E+02  0.18194226265E+02  0.00000000000E+00 0.  1.
         12    1    3    3    0    0  0.99030375467E+02 -0.12715656405E+03  0.54640175742E+03  0.56967594961E+03  0.00000000000E+00 0. -1.
        -13    1    5    5    0    0 -0.12655388388E+03 -0.80097932461E+02  0.15379725765E+03  0.21467454616E+03  0.00000000000E+00 0.  1.
         14    1    5    5    0    0 -0.20037983002E+02 -0.52522810923E+02  0.17067341404E+02  0.58749132527E+02  0.00000000000E+00 0. -1.
          5    1    4    4  501    0  0.17371673016E+03  0.27363673864E+03  0.61243992476E+03  0.69293529172E+03  0.47000000000E+01 0. -1.
         -5    1    4    4    0  501 -0.18817061114E+02  0.97590883434E+01  0.32114596584E+02  0.38765434449E+02  0.47000000000E+01 0. -1.
          1    1    1    2  502    0 -0.11550756687E+02 -0.39438323976E+02  0.32992540009E+03  0.33247491786E+03  0.00000000000E+00 0. -1.
          1    1    1    2  503    0 -0.91546344954E+02  0.79096996143E+01  0.18542798116E+02  0.93739703351E+02  0.00000000000E+00 0. -1.
<mgrwt>
<rscale>  0 0.61552730E+02</rscale>
<asrwt>0</asrwt>
<pdfrwt beam="1">  1        2 0.27539150E+00 0.41095029E+02</pdfrwt>
<pdfrwt beam="2">  1        2 0.21551014E-01 0.92194571E+02</pdfrwt>
<totfact> 0.43995482E+02</totfact>
</mgrwt>
</event>
<event>
13    1  0.1390058E-007  0.6670515E+02  0.7546771E-02  0.1480211E+00
          2   -1    0    0  503    0  0.00000000000E+00  0.00000000000E+00  0.54890826644E+03  0.54890826644E+03  0.00000000000E+00 0. -1.
          2   -1    0    0  502    0 -0.00000000000E+00 -0.00000000000E+00 -0.24383153362E+04  0.24383153362E+04  0.00000000000E+00 0. -1.
         24    2    1    2    0    0 -0.39324203907E+02  0.33359559207E+02 -0.10731545095E+04  0.10775442614E+04  0.82351569129E+02 0.  0.
         25    2    1    2    0    0  0.48642442497E+01 -0.74768935608E+02 -0.14922167201E+03  0.20858321100E+03  0.12500317560E+03 0.  0.
         24    2    1    2    0    0  0.14235816842E+02  0.10262332776E+03  0.50438191091E+03  0.52121643580E+03  0.80816180356E+02 0.  0.
        -13    1    3    3    0    0 -0.46229227569E+02  0.22341974260E+02 -0.10477340411E+04  0.10489913852E+04  0.00000000000E+00 0.  1.
         14    1    3    3    0    0  0.69050236619E+01  0.11017584947E+02 -0.25420468329E+02  0.28552876211E+02  0.00000000000E+00 0. -1.
        -13    1    5    5    0    0  0.27313402871E+02  0.44055462034E+02  0.10232111506E+03  0.11470185830E+03  0.00000000000E+00 0.  1.
         14    1    5    5    0    0 -0.13077586029E+02  0.58567865729E+02  0.40206079586E+03  0.40651457750E+03  0.00000000000E+00 0. -1.
          5    1    4    4  501    0  0.40285448240E+01 -0.98155498724E+02 -0.15541845155E+03  0.18392312575E+03  0.47000000000E+01 0. -1.
         -5    1    4    4    0  501  0.83569942576E+00  0.23386563116E+02  0.61967795425E+01  0.24660085252E+02  0.47000000000E+01 0. -1.
          1    1    1    2  502    0 -0.71761833199E+01 -0.71073105008E+02 -0.11056833567E+04  0.11079885240E+04  0.00000000000E+00 0. -1.
          1    1    1    2  503    0  0.27400326136E+02  0.98591536458E+01 -0.65729442523E+02  0.71891170510E+02  0.00000000000E+00 0. -1.
<mgrwt>
<rscale>  0 0.44073361E+02</rscale>
<asrwt>0</asrwt>
<pdfrwt beam="1">  1        2 0.80721805E-01 0.66705147E+02</pdfrwt>
<pdfrwt beam="2">  1        2 0.35857578E+00 0.29120110E+02</pdfrwt>
<totfact> 0.62283194E+01</totfact>
</mgrwt>
</event>
<event>
13    1  0.2101801E-008  0.1424904E+03  0.7546771E-02  0.1247031E+00
          2   -1    0    0  503    0  0.00000000000E+00  0.00000000000E+00  0.22598157080E+04  0.22598157080E+04  0.00000000000E+00 0. -1.
          2   -1    0    0  502    0 -0.00000000000E+00 -0.00000000000E+00 -0.39591798394E+04  0.39591798394E+04  0.00000000000E+00 0. -1.
         24    2    1    2    0    0 -0.13497797104E+03 -0.29769113200E+02 -0.42076414166E+03  0.45024681130E+03  0.81083138907E+02 0.  0.
         25    2    1    2    0    0  0.30407305552E+03 -0.37475918945E+02 -0.31931498056E+03  0.45983913067E+03  0.12500040674E+03 0.  0.
         24    2    1    2    0    0 -0.32591479298E+02  0.98611881778E+02 -0.42486321287E+02  0.13688096061E+03  0.78388788293E+02 0.  0.
        -11    1    5    5    0    0 -0.18680598570E+02  0.96842466129E+02 -0.71764665992E+01  0.98888470925E+02  0.00000000000E+00 0.  1.
         12    1    5    5    0    0 -0.13910880728E+02  0.17694156489E+01 -0.35309854688E+02  0.37992489685E+02  0.00000000000E+00 0. -1.
        -11    1    3    3    0    0 -0.14391281155E+03 -0.29801603013E+02 -0.36021934778E+03  0.38904628438E+03  0.00000000000E+00 0.  1.
         12    1    3    3    0    0  0.89348405092E+01  0.32489812788E-01 -0.60544793873E+02  0.61200526923E+02  0.00000000000E+00 0. -1.
          5    1    4    4  501    0  0.24915198575E+03  0.13337216293E+02 -0.20413267050E+03  0.32240786359E+03  0.47000000000E+01 0.  1.
         -5    1    4    4    0  501  0.54921069771E+02 -0.50813135237E+02 -0.11518231007E+03  0.13743126708E+03  0.47000000000E+01 0.  1.
          1    1    1    2  502    0 -0.12586358511E+03  0.65182974780E+02 -0.30416537784E+04  0.30449545431E+04  0.00000000000E+00 0. -1.
          1    1    1    2  503    0 -0.10640020082E+02 -0.96549824414E+02  0.21248550905E+04  0.21270741017E+04  0.00000000000E+00 0. -1.
<mgrwt>
<rscale>  0 0.11764657E+03</rscale>
<asrwt>0</asrwt>
<pdfrwt beam="1">  1        2 0.33232585E+00 0.97134333E+02</pdfrwt>
<pdfrwt beam="2">  1        2 0.58223232E+00 0.14249045E+03</pdfrwt>
<totfact> 0.78560805E-01</totfact>
</mgrwt>
</event>
<event>
13    1  0.2101801E-008  0.1174850E+03  0.7546771E-02  0.1257688E+00
          2   -1    0    0  502    0  0.00000000000E+00  0.00000000000E+00  0.12670809445E+04  0.12670809445E+04  0.00000000000E+00 0. -1.
          2   -1    0    0  503    0 -0.00000000000E+00 -0.00000000000E+00 -0.11020055187E+04  0.11020055187E+04  0.00000000000E+00 0. -1.
         24    2    1    2    0    0 -0.51378494937E+02  0.14561404052E+01 -0.10602462431E+03  0.14346135249E+03  0.81841729022E+02 0.  0.
         25    2    1    2    0    0 -0.34496079218E+01  0.14512969449E+03  0.60595778719E+03  0.63551930137E+03  0.12500165816E+03 0.  0.
         24    2    1    2    0    0  0.91405805612E+01 -0.14095052295E+02  0.65837396534E+02  0.10507021471E+03  0.80143412229E+02 0.  0.
        -11    1    5    5    0    0 -0.21687148946E+02  0.10746040591E+02  0.60448994072E+02  0.65114443114E+02  0.00000000000E+00 0.  1.
         12    1    5    5    0    0  0.30827729507E+02 -0.24841092886E+02  0.53884024618E+01  0.39955771591E+02  0.00000000000E+00 0. -1.
        -11    1    3    3    0    0 -0.19253896119E+02 -0.38396338991E+02 -0.32455040721E+02  0.53836056987E+02  0.00000000000E+00 0.  1.
         12    1    3    3    0    0 -0.32124598818E+02  0.39852479396E+02 -0.73569583593E+02  0.89625295499E+02  0.00000000000E+00 0. -1.
          5    1    4    4  501    0 -0.50657141902E+02  0.91308185484E+02  0.22807105373E+03  0.25088209643E+03  0.47000000000E+01 0. -1.
         -5    1    4    4    0  501  0.47207533980E+02  0.53821509009E+02  0.37788673346E+03  0.38463720494E+03  0.47000000000E+01 0. -1.
          1    1    1    2  502    0  0.11990533274E+03 -0.53857695040E+02  0.53103044350E+03  0.54705691848E+03  0.00000000000E+00 0. -1.
          1    1    1    2  503    0 -0.74217810447E+02 -0.78633087564E+02 -0.93172557711E+03  0.93797867613E+03  0.00000000000E+00 0. -1.
<mgrwt>
<rscale>  0 0.11157121E+03</rscale>
<asrwt>0</asrwt>
<pdfrwt beam="1">  1        2 0.18633543E+00 0.10595514E+03</pdfrwt>
<pdfrwt beam="2">  1        2 0.16205963E+00 0.11748496E+03</pdfrwt>
<totfact> 0.83171549E+01</totfact>
</mgrwt>
</event>
<event>
13    1  0.2101801E-008  0.8966909E+02  0.7546771E-02  0.1360471E+00
          2   -1    0    0  503    0  0.00000000000E+00  0.00000000000E+00  0.44460548886E+04  0.44460548886E+04  0.00000000000E+00 0. -1.
          2   -1    0    0  502    0 -0.00000000000E+00 -0.00000000000E+00 -0.45262196581E+03  0.45262196581E+03  0.00000000000E+00 0. -1.
         24    2    1    2    0    0  0.26376504343E+02 -0.40010545380E+02  0.50359031307E+03  0.51282888857E+03  0.84224116547E+02 0.  0.
         25    2    1    2    0    0 -0.10635182018E+03  0.77258820057E+02  0.74917956464E+03  0.77082747438E+03  0.12500136098E+03 0.  0.
         24    2    1    2    0    0 -0.49225677901E+02  0.84371673787E+01  0.15329441074E+04  0.15358628754E+04  0.80391432818E+02 0.  0.
        -11    1    5    5    0    0 -0.10616278526E+01  0.31193661753E+02  0.27038260091E+03  0.27217810798E+03  0.00000000000E+00 0.  1.
         12    1    5    5    0    0 -0.48164050048E+02 -0.22756494375E+02  0.12625615065E+04  0.12636847675E+04  0.00000000000E+00 0. -1.
        -11    1    3    3    0    0 -0.26011478117E+02 -0.17505823280E+02  0.89530644562E+02  0.94861937353E+02  0.00000000000E+00 0.  1.
         12    1    3    3    0    0  0.52387982460E+02 -0.22504722100E+02  0.41405966851E+03  0.41796695121E+03  0.00000000000E+00 0. -1.
          5    1    4    4  501    0 -0.17646913890E+02  0.70676253287E+02  0.17250243585E+03  0.18731184352E+03  0.47000000000E+01 0.  1.
         -5    1    4    4    0  501 -0.88704906292E+02  0.65825667707E+01  0.57667712879E+03  0.58351563086E+03  0.47000000000E+01 0.  1.
          1    1    1    2  502    0  0.43562283483E+02 -0.32703917599E+02 -0.43286991165E+03  0.43628382869E+03  0.00000000000E+00 0. -1.
          1    1    1    2  503    0  0.85638710257E+02 -0.12981524458E+02  0.16405888493E+04  0.16428737873E+04  0.00000000000E+00 0. -1.
<mgrwt>
<rscale>  0 0.69888990E+02</rscale>
<asrwt>0</asrwt>
<pdfrwt beam="1">  1        2 0.65383158E+00 0.89669086E+02</pdfrwt>
<pdfrwt beam="2">  1        2 0.66562056E-01 0.54472183E+02</pdfrwt>
<totfact> 0.41663524E+00</totfact>
</mgrwt>
</event>
<event>
13    1  0.2101801E-008  0.4742287E+02  0.7546771E-02  0.1484206E+00
          2   -1    0    0  502    0  0.00000000000E+00  0.00000000000E+00  0.17957981574E+04  0.17957981574E+04  0.00000000000E+00 0. -1.
          2   -1    0    0  503    0 -0.00000000000E+00 -0.00000000000E+00 -0.79024660652E+03  0.79024660652E+03  0.00000000000E+00 0. -1.
         24    2    1    2    0    0  0.99631674810E+02 -0.97174184854E+00 -0.84930458512E+02  0.15314210999E+03  0.79447518278E+02 0.  0.
         25    2    1    2    0    0 -0.14116823682E+03  0.13282888064E+03  0.91163408166E+03  0.94035883447E+03  0.12500422427E+03 0.  0.
         24    2    1    2    0    0  0.21289344409E+02 -0.11846497183E+03 -0.17452837851E+02  0.14718008874E+03  0.82886616745E+02 0.  0.
        -11    1    5    5    0    0 -0.26736878424E+02 -0.12066559245E+02 -0.16506283390E+01  0.29380045843E+02  0.00000000000E+00 0.  1.
         12    1    5    5    0    0  0.48026222833E+02 -0.10639841258E+03 -0.15802209512E+02  0.11780004289E+03  0.00000000000E+00 0. -1.
        -13    1    3    3    0    0  0.14274944776E+02 -0.18398281204E+01  0.15623064594E+02  0.21242390712E+02  0.00000000000E+00 0.  1.
         14    1    3    3    0    0  0.85356730034E+02  0.86808627184E+00 -0.10055352311E+03  0.13189971927E+03  0.00000000000E+00 0. -1.
          5    1    4    4  501    0 -0.28495745681E+02  0.10669234898E+03  0.35476587426E+03  0.37158603364E+03  0.47000000000E+01 0. -1.
         -5    1    4    4    0  501 -0.11267249113E+03  0.26136531659E+02  0.55686820740E+03  0.56877280083E+03  0.47000000000E+01 0. -1.
          1    1    1    2  502    0 -0.23271400299E+02 -0.32317358037E+02  0.76933640110E+03  0.77036645031E+03  0.00000000000E+00 0. -1.
          1    1    1    2  503    0  0.43518617895E+02  0.18925191071E+02 -0.57303563550E+03  0.57499728044E+03  0.00000000000E+00 0. -1.
<mgrwt>
<rscale>  0 0.43457790E+02</rscale>
<asrwt>0</asrwt>
<pdfrwt beam="1">  1        2 0.26408796E+00 0.39824235E+02</pdfrwt>
<pdfrwt beam="2">  1        2 0.11621274E+00 0.47422870E+02</pdfrwt>
<totfact> 0.79378824E+01</totfact>
</mgrwt>
</event>
<event>
13    1  0.2101801E-008  0.1164324E+03  0.7546771E-02  0.1269026E+00
         -1   -1    0    0    0  501 -0.00000000000E+00  0.00000000000E+00  0.36066864772E+03  0.36066864772E+03  0.00000000000E+00 0.  1.
          2   -1    0    0  503    0  0.00000000000E+00 -0.00000000000E+00 -0.19954227234E+04  0.19954227234E+04  0.00000000000E+00 0. -1.
         24    2    1    2    0    0  0.24532461890E+02 -0.66092338473E+02 -0.27892445526E+02  0.11109773572E+03  0.81207631872E+02 0.  0.
         25    2    1    2    0    0 -0.27038399548E+02  0.10343492567E+03 -0.96159798029E+02  0.19054042131E+03  0.12501634492E+03 0.  0.
         24    2    1    2    0    0 -0.18418266747E+02 -0.16682300455E+02 -0.29738539396E+02  0.89628617376E+02  0.80816932811E+02 0.  0.
        -11    1    5    5    0    0  0.25302137766E+02  0.15570176680E+02 -0.15279615564E+02  0.33408011452E+02  0.00000000000E+00 0.  1.
         12    1    5    5    0    0 -0.43720404513E+02 -0.32252477135E+02 -0.14458923832E+02  0.56220605924E+02  0.00000000000E+00 0. -1.
        -13    1    3    3    0    0  0.77261603690E+01 -0.80482061794E+02 -0.34649554238E+02  0.87963898467E+02  0.00000000000E+00 0.  1.
         14    1    3    3    0    0  0.16806301521E+02  0.14389723321E+02  0.67571087113E+01  0.23133837257E+02  0.00000000000E+00 0. -1.
          5    1    4    4  502    0 -0.42579596640E+02  0.11829678994E+03 -0.42926290027E+02  0.13293573235E+03  0.47000000000E+01 0. -1.
         -5    1    4    4    0  502  0.15541197092E+02 -0.14861864264E+02 -0.53233508002E+02  0.57604688964E+02  0.47000000000E+01 0. -1.
          1    1    1    2  503    0  0.11596175094E+03 -0.23713204415E+02 -0.17114272962E+04  0.17155153260E+04  0.00000000000E+00 0. -1.
         -2    1    1    2    0  501 -0.95037546540E+02  0.30529176714E+01  0.23046400345E+03  0.24930927067E+03  0.00000000000E+00 0.  1.
<mgrwt>
<rscale>  0 0.10555702E+03</rscale>
<asrwt>0</asrwt>
<pdfrwt beam="2">  1        2 0.29344452E+00 0.11643239E+03</pdfrwt>
<pdfrwt beam="1">  1       -1 0.53039507E-01 0.95697470E+02</pdfrwt>
<totfact> 0.38817363E+01</totfact>
</mgrwt>
</event>
<event>
13    1  0.2101801E-008  0.1888993E+03  0.7546771E-02  0.1219179E+00
          2   -1    0    0  503    0  0.00000000000E+00  0.00000000000E+00  0.69760769620E+03  0.69760769620E+03  0.00000000000E+00 0. -1.
         -3   -1    0    0    0  501 -0.00000000000E+00 -0.00000000000E+00 -0.10191916708E+04  0.10191916708E+04  0.00000000000E+00 0.  1.
         24    2    1    2    0    0  0.12938664296E+02  0.81979278225E+01 -0.21780557302E+03  0.23252112120E+03  0.79951167033E+02 0.  0.
         25    2    1    2    0    0 -0.72762965406E+02  0.22687510905E+03  0.40547353937E+03  0.48662557920E+03  0.12501559488E+03 0.  0.
         24    2    1    2    0    0 -0.47733805934E+02 -0.21039673560E+03 -0.17905304025E+03  0.29057398447E+03  0.76340989304E+02 0.  0.
        -13    1    3    3    0    0 -0.19480668305E+02  0.91386317045E+00 -0.18431513619E+03  0.18534400722E+03  0.00000000000E+00 0.  1.
         14    1    3    3    0    0  0.32419332602E+02  0.72840646520E+01 -0.33490436830E+02  0.47177113977E+02  0.00000000000E+00 0. -1.
        -13    1    5    5    0    0 -0.61136170988E+02 -0.10273907497E+03 -0.10603991886E+03  0.15980429694E+03  0.00000000000E+00 0.  1.
         14    1    5    5    0    0  0.13402365054E+02 -0.10765766063E+03 -0.73013121386E+02  0.13076968753E+03  0.00000000000E+00 0. -1.
          5    1    4    4  502    0 -0.51402116599E+02  0.16549894012E+02  0.11703272197E+03  0.12897606209E+03  0.47000000000E+01 0. -1.
         -5    1    4    4    0  502 -0.21360848807E+02  0.21032521504E+03  0.28844081740E+03  0.35764951711E+03  0.47000000000E+01 0. -1.
          1    1    1    2  503    0  0.19501421092E+03  0.65310291518E+02  0.12109573396E+03  0.23866326366E+03  0.00000000000E+00 0. -1.
         -4    1    1    2    0  501 -0.87456103874E+02 -0.89986592793E+02 -0.45129463463E+03  0.46841541844E+03  0.00000000000E+00 0.  1.
<mgrwt>
<rscale>  0 0.13574016E+03</rscale>
<asrwt>0</asrwt>
<pdfrwt beam="1">  1        2 0.10258937E+00 0.18889930E+03</pdfrwt>
<pdfrwt beam="2">  1       -3 0.14988113E+00 0.97540811E+02</pdfrwt>
<totfact> 0.96146654E+00</totfact>
</mgrwt>
</event>
<event>
13    1  0.2101801E-008  0.9530818E+02  0.7546771E-02  0.1367049E+00
          2   -1    0    0  503    0  0.00000000000E+00  0.00000000000E+00  0.11035394253E+04  0.11035394253E+04  0.00000000000E+00 0. -1.
         -3   -1    0    0    0  501 -0.00000000000E+00 -0.00000000000E+00 -0.39622289256E+04  0.39622289256E+04  0.00000000000E+00 0.  1.
         24    2    1    2    0    0 -0.37255359401E+02  0.22906211381E+03 -0.18452812761E+04  0.18615528381E+04  0.80365212438E+02 0.  0.
         25    2    1    2    0    0  0.14486352432E+03 -0.16702596651E+03 -0.21553491826E+03  0.33311293639E+03  0.12500325290E+03 0.  0.
         24    2    1    2    0    0 -0.92117379543E+01 -0.12692224153E+03  0.64512588604E+03  0.66300148637E+03  0.84790627903E+02 0.  0.
        -13    1    3    3    0    0  0.64348529960E+01  0.17522793340E+03 -0.12470260725E+04  0.12592935565E+04  0.00000000000E+00 0.  1.
         14    1    3    3    0    0 -0.43690212397E+02  0.53834180414E+02 -0.59825520358E+03  0.60225928158E+03  0.00000000000E+00 0. -1.
        -13    1    5    5    0    0 -0.23108339922E+01  0.37859920472E+01  0.17330095485E+03  0.17335770719E+03  0.00000000000E+00 0.  1.
         14    1    5    5    0    0 -0.69009039621E+01 -0.13070823358E+03  0.47182493118E+03  0.48964377918E+03  0.00000000000E+00 0. -1.
          5    1    4    4  502    0  0.92324762916E+02 -0.43696582470E+02 -0.34739017794E+02  0.10799140023E+03  0.47000000000E+01 0.  1.
         -5    1    4    4    0  502  0.52538761404E+02 -0.12332938404E+03 -0.18079590046E+03  0.22512153616E+03  0.47000000000E+01 0.  1.
          1    1    1    2  503    0 -0.46187869945E+02 -0.14823827971E+02  0.37976375321E+03  0.38284928295E+03  0.00000000000E+00 0. -1.
         -4    1    1    2    0  501 -0.52208557020E+02  0.79709922201E+02 -0.18227629451E+04  0.18252518071E+04  0.00000000000E+00 0.  1.
<mgrwt>
<rscale>  0 0.67994469E+02</rscale>
<asrwt>0</asrwt>
<pdfrwt beam="1">  1        2 0.16228521E+00 0.48508403E+02</pdfrwt>
<pdfrwt beam="2">  1       -3 0.58268072E+00 0.95308185E+02</pdfrwt>
<totfact> 0.28598336E-02</totfact>
</mgrwt>
</event>
<event>
13    1  0.2101801E-008  0.8867928E+02  0.7546771E-02  0.1340780E+00
          2   -1    0    0  502    0  0.00000000000E+00  0.00000000000E+00  0.31405494088E+04  0.31405494088E+04  0.00000000000E+00 0. -1.
          2   -1    0    0  503    0 -0.00000000000E+00 -0.00000000000E+00 -0.26710917175E+04  0.26710917175E+04  0.00000000000E+00 0. -1.
         24    2    1    2    0    0 -0.11635504986E+03  0.44765303337E+02  0.12907630797E+03  0.19640740019E+03  0.79829465487E+02 0.  0.
         25    2    1    2    0    0 -0.19927355250E+02 -0.11738467273E+02  0.23090984359E+02  0.12920257818E+03  0.12500088619E+03 0.  0.
         24    2    1    2    0    0 -0.10920843476E+02 -0.41445961054E+02  0.81713289382E+03  0.82207674908E+03  0.79164276746E+02 0.  0.
        -13    1    5    5    0    0  0.77022391997E+01 -0.28199002098E+02  0.75972320567E+03  0.76028537895E+03  0.00000000000E+00 0.  1.
         14    1    5    5    0    0 -0.18623082676E+02 -0.13246958956E+02  0.57409688150E+02  0.61791370137E+02  0.00000000000E+00 0. -1.
        -13    1    3    3    0    0 -0.48313136985E+02  0.42109413366E+02  0.10718028297E+03  0.12487984207E+03  0.00000000000E+00 0.  1.
         14    1    3    3    0    0 -0.68041912879E+02  0.26558899712E+01  0.21896025003E+02  0.71527558121E+02  0.00000000000E+00 0. -1.
          5    1    4    4  501    0 -0.41966107636E+02 -0.19852834078E+02 -0.40162627255E+02  0.61566353141E+02  0.47000000000E+01 0. -1.
         -5    1    4    4    0  501  0.22038752385E+02  0.81143668049E+01  0.63253611614E+02  0.67636225039E+02  0.47000000000E+01 0. -1.
          1    1    1    2  502    0  0.86693751490E+02 -0.15718585331E+02  0.20807125617E+04  0.20825771642E+04  0.00000000000E+00 0. -1.
          1    1    1    2  503    0  0.60509497100E+02  0.24137710321E+02 -0.25805550565E+04  0.25813772347E+04  0.00000000000E+00 0. -1.
<mgrwt>
<rscale>  0 0.76007360E+02</rscale>
<asrwt>0</asrwt>
<pdfrwt beam="1">  1        2 0.46184550E+00 0.88679281E+02</pdfrwt>
<pdfrwt beam="2">  1        2 0.39280760E+00 0.65146207E+02</pdfrwt>
<totfact> 0.17585699E+00</totfact>
</mgrwt>
</event>
<event>
13    1  0.2101801E-008  0.1385930E+03  0.7546771E-02  0.1357624E+00
          2   -1    0    0  502    0  0.00000000000E+00  0.00000000000E+00  0.48817741545E+04  0.48817741545E+04  0.00000000000E+00 0. -1.
          2   -1    0    0  503    0 -0.00000000000E+00 -0.00000000000E+00 -0.22277562217E+04  0.22277562217E+04  0.00000000000E+00 0. -1.
         24    2    1    2    0    0  0.71936917621E+03 -0.49362989148E+03 -0.79130147252E+03  0.11830273682E+04  0.11060403310E+03 0.  0.
         25    2    1    2    0    0 -0.18643250535E+03 -0.34505293071E+03  0.10308116258E+04  0.11099617589E+04  0.12499557678E+03 0.  0.
         24    2    1    2    0    0 -0.43084808304E+03  0.78455443650E+03  0.14754835080E+04  0.17275728379E+04  0.79376275572E+02 0.  0.
        -11    1    3    3    0    0  0.64949999380E+03 -0.47764227954E+03 -0.74474038776E+03  0.10975566656E+04  0.00000000000E+00 0.  1.
         12    1    3    3    0    0  0.69869182412E+02 -0.15987611932E+02 -0.46561084765E+02  0.85470702587E+02  0.00000000000E+00 0. -1.
        -11    1    5    5    0    0 -0.18547394778E+03  0.41581795320E+03  0.72341606115E+03  0.85477245688E+03  0.00000000000E+00 0.  1.
         12    1    5    5    0    0 -0.24537413526E+03  0.36873648331E+03  0.75206744689E+03  0.87280038098E+03  0.00000000000E+00 0. -1.
          5    1    4    4  501    0  0.12472641838E+02 -0.74150948635E+02  0.17634633780E+03  0.19176561431E+03  0.47000000000E+01 0. -1.
         -5    1    4    4    0  501 -0.19890514719E+03 -0.27090198208E+03  0.85446528803E+03  0.91819614458E+03  0.47000000000E+01 0. -1.
          1    1    1    2  502    0  0.32944486376E+01 -0.35947162814E+02  0.20093638629E+04  0.20096880816E+04  0.00000000000E+00 0. -1.
          1    1    1    2  503    0 -0.10538303646E+03  0.90075548501E+02 -0.10703395915E+04  0.10792803296E+04  0.00000000000E+00 0. -1.
<mgrwt>
<rscale>  0 0.70731220E+02</rscale>
<asrwt>0</asrwt>
<pdfrwt beam="1">  1        2 0.71790796E+00 0.36097810E+02</pdfrwt>
<pdfrwt beam="2">  1        2 0.32761121E+00 0.13859305E+03</pdfrwt>
<totfact> 0.21435096E-01</totfact>
</mgrwt>
</event>
<event>
13    1  0.2101801E-008  0.1729105E+03  0.7546771E-02  0.1190757E+00
          2   -1    0    0  503    0  0.00000000000E+00  0.00000000000E+00  0.29920706703E+04  0.29920706703E+04  0.00000000000E+00 0. -1.
          2   -1    0    0  502    0 -0.00000000000E+00 -0.00000000000E+00 -0.11476430381E+04  0.11476430381E+04  0.00000000000E+00 0. -1.
         24    2    1    2    0    0 -0.89360015462E+02 -0.51435285072E+02 -0.73027915811E+03  0.74195800886E+03  0.81013808850E+02 0.  0.
         25    2    1    2    0    0  0.16101056818E+03  0.15712325450E+02 -0.95609145404E+02  0.22568556336E+03  0.12498633760E+03 0.  0.
         24    2    1    2    0    0 -0.11945696583E+03  0.97732888372E+02  0.94822840707E+03  0.96462374784E+03  0.86834202741E+02 0.  0.
        -11    1    3    3    0    0 -0.23017019342E+01  0.19002179909E+02 -0.10613838782E+03  0.10785053566E+03  0.00000000000E+00 0.  1.
         12    1    3    3    0    0 -0.87058313527E+02 -0.70437464981E+02 -0.62414077028E+03  0.63410747319E+03  0.00000000000E+00 0. -1.
        -13    1    5    5    0    0 -0.76914878430E+02  0.75747685375E+01  0.43139208834E+03  0.43826066390E+03  0.00000000000E+00 0.  1.
         14    1    5    5    0    0 -0.42542087404E+02  0.90158119835E+02  0.51683631873E+03  0.52636308393E+03  0.00000000000E+00 0. -1.
          5    1    4    4  501    0  0.13661771429E+03  0.62933130501E+02 -0.62932620814E+02  0.16311831146E+03  0.47000000000E+01 0.  1.
         -5    1    4    4    0  501  0.24392853890E+02 -0.47220805051E+02 -0.32676524589E+02  0.62567251896E+02  0.47000000000E+01 0.  1.
          1    1    1    2  502    0  0.65726381759E+02 -0.20588333445E+03 -0.19126990621E+03  0.28860367581E+03  0.00000000000E+00 0. -1.
          1    1    1    2  503    0 -0.17919968640E+02  0.14387340570E+03  0.19133574348E+04  0.19188427126E+04  0.00000000000E+00 0. -1.
<mgrwt>
<rscale>  0 0.15818849E+03</rscale>
<asrwt>0</asrwt>
<pdfrwt beam="1">  1        2 0.44001039E+00 0.14471994E+03</pdfrwt>
<pdfrwt beam="2">  1        2 0.16877104E+00 0.17291051E+03</pdfrwt>
<totfact> 0.10147513E+01</totfact>
</mgrwt>
</event>
<event>
13    1  0.2101801E-008  0.7297806E+02  0.7546771E-02  0.1424104E+00
          2   -1    0    0  503    0  0.00000000000E+00  0.00000000000E+00  0.15655516948E+04  0.15655516948E+04  0.00000000000E+00 0. -1.
          2   -1    0    0  502    0 -0.00000000000E+00 -0.00000000000E+00 -0.17871027700E+04  0.17871027700E+04  0.00000000000E+00 0. -1.
         24    2    1    2    0    0  0.50033457137E+03  0.10621194255E+03  0.26840004355E+03  0.58649954164E+03  0.10162415519E+03 0.  0.
         25    2    1    2    0    0 -0.23523190539E+03  0.31533188342E+03  0.32803800285E+03  0.52725839864E+03  0.12499696640E+03 0.  0.
         24    2    1    2    0    0 -0.19234495238E+03 -0.44074166547E+03  0.20086639106E+03  0.52767394162E+03  0.82720524807E+02 0.  0.
        -11    1    3    3    0    0  0.43002818968E+03  0.12449344183E+03  0.24403295122E+03  0.50987737963E+03  0.00000000000E+00 0.  1.
         12    1    3    3    0    0  0.70306381690E+02 -0.18281499283E+02  0.24367092331E+02  0.76622162010E+02  0.00000000000E+00 0. -1.
        -11    1    5    5    0    0 -0.45467223566E+02 -0.16332070870E+03  0.10518666696E+03  0.19951229841E+03  0.00000000000E+00 0.  1.
         12    1    5    5    0    0 -0.14687772881E+03 -0.27742095677E+03  0.95679724105E+02  0.32816164322E+03  0.00000000000E+00 0. -1.
          5    1    4    4  501    0 -0.12439349010E+03  0.18451743816E+03  0.10557614843E+03  0.24635104725E+03  0.47000000000E+01 0.  1.
         -5    1    4    4    0  501 -0.11083841529E+03  0.13081444526E+03  0.22246185442E+03  0.28090735139E+03  0.47000000000E+01 0.  1.
          1    1    1    2  502    0 -0.27552565337E+01  0.40102684434E+02 -0.13608845464E+04  0.13614780811E+04  0.00000000000E+00 0. -1.
          1    1    1    2  503    0 -0.70002457063E+02 -0.20904844929E+02  0.34202903376E+03  0.34974450170E+03  0.00000000000E+00 0. -1.
<mgrwt>
<rscale>  0 0.54161935E+02</rscale>
<asrwt>0</asrwt>
<pdfrwt beam="1">  1        2 0.23022819E+00 0.72978056E+02</pdfrwt>
<pdfrwt beam="2">  1        2 0.26280923E+00 0.40197223E+02</pdfrwt>
<totfact> 0.30132692E+01</totfact>
</mgrwt>
</event>
<event>
13    1  0.2101801E-008  0.1054686E+03  0.7546771E-02  0.1342174E+00
         -1   -1    0    0    0  501 -0.00000000000E+00  0.00000000000E+00  0.30474632671E+04  0.30474632671E+04  0.00000000000E+00 0.  1.
          2   -1    0    0  503    0  0.00000000000E+00 -0.00000000000E+00 -0.28622110140E+04  0.28622110140E+04  0.00000000000E+00 0. -1.
         24    2    1    2    0    0  0.15298154041E+03 -0.60179779367E+02  0.47635010686E+03  0.50983555340E+03  0.77446172604E+02 0.  0.
         25    2    1    2    0    0 -0.24422728321E+03  0.14503628924E+02 -0.21972538626E+03  0.35179847661E+03  0.12500240661E+03 0.  0.
         24    2    1    2    0    0 -0.11552513138E+02 -0.21366551676E+02  0.55699911017E+02  0.99727490916E+02  0.79076559528E+02 0.  0.
        -13    1    3    3    0    0  0.18765325659E+02  0.97834235623E+01  0.13205381120E+03  0.13373878225E+03  0.00000000000E+00 0.  1.
         14    1    3    3    0    0  0.13421621475E+03 -0.69963202929E+02  0.34429629566E+03  0.37609677115E+03  0.00000000000E+00 0. -1.
        -13    1    5    5    0    0 -0.88782691067E+01 -0.35663993333E+02 -0.51965292242E+01  0.37118027949E+02  0.00000000000E+00 0.  1.
         14    1    5    5    0    0 -0.26742440317E+01  0.14297441657E+02  0.60896440241E+02  0.62609462968E+02  0.00000000000E+00 0. -1.
          5    1    4    4  502    0 -0.87527123082E+02 -0.49249938168E+02 -0.50667500351E+02  0.11258702979E+03  0.47000000000E+01 0.  1.
         -5    1    4    4    0  502 -0.15670016013E+03  0.63753567093E+02 -0.16905788591E+03  0.23921144682E+03  0.47000000000E+01 0.  1.
          1    1    1    2  503    0  0.48709277275E+02 -0.23586538215E+02 -0.25362485287E+04  0.25368258746E+04  0.00000000000E+00 0. -1.
         -2    1    1    2    0  501  0.54088978668E+02  0.90629240334E+02  0.24091761502E+04  0.24114868856E+04  0.00000000000E+00 0.  1.
<mgrwt>
<rscale>  0 0.75550672E+02</rscale>
<asrwt>0</asrwt>
<pdfrwt beam="2">  1        2 0.42091338E+00 0.54119483E+02</pdfrwt>
<pdfrwt beam="1">  1       -1 0.44815637E+00 0.10546856E+03</pdfrwt>
<totfact> 0.21034216E-02</totfact>
</mgrwt>
</event>
<event>
13    1  0.2101801E-008  0.1022069E+03  0.7546771E-02  0.1299995E+00
         -1   -1    0    0    0  501 -0.00000000000E+00  0.00000000000E+00  0.74132618072E+03  0.74132618072E+03  0.00000000000E+00 0.  1.
          2   -1    0    0  503    0  0.00000000000E+00 -0.00000000000E+00 -0.23827393570E+04  0.23827393570E+04  0.00000000000E+00 0. -1.
         24    2    1    2    0    0 -0.10192313734E+03 -0.20042784358E+03 -0.18447786850E+03  0.30500510084E+03  0.91849774973E+02 0.  0.
         25    2    1    2    0    0  0.26275709261E+03  0.17075731431E+03 -0.29467204031E+03  0.44794445889E+03  0.12499310703E+03 0.  0.
         24    2    1    2    0    0  0.70256071918E+00  0.68053764198E+02 -0.83090266873E+03  0.83765150899E+03  0.81418653877E+02 0.  0.
        -13    1    3    3    0    0  0.73496904914E+01 -0.75228098249E+02 -0.71601247442E+02  0.10411543282E+03  0.00000000000E+00 0.  1.
         14    1    3    3    0    0 -0.10927282783E+03 -0.12519974533E+03 -0.11287662106E+03  0.20088966801E+03  0.00000000000E+00 0. -1.
        -13    1    5    5    0    0 -0.25692880702E+02  0.52929396141E+02 -0.72726903393E+03  0.72964504576E+03  0.00000000000E+00 0.  1.
         14    1    5    5    0    0  0.26395441421E+02  0.15124368057E+02 -0.10363363480E+03  0.10800646323E+03  0.00000000000E+00 0. -1.
          5    1    4    4  502    0  0.64049764168E+02  0.61490269283E+02 -0.18937529175E+02  0.90907345785E+02  0.47000000000E+01 0. -1.
         -5    1    4    4    0  502  0.19870732844E+03  0.10926704502E+03 -0.27573451114E+03  0.35703711311E+03  0.47000000000E+01 0. -1.
          1    1    1    2  503    0 -0.60948681133E+02 -0.53896521423E+02 -0.92630807909E+03  0.92987431094E+03  0.00000000000E+00 0. -1.
         -2    1    1    2    0  501 -0.10058783486E+03  0.15513286500E+02  0.59494748033E+03  0.60359015808E+03  0.00000000000E+00 0.  1.
<mgrwt>
<rscale>  0 0.91190083E+02</rscale>
<asrwt>0</asrwt>
<pdfrwt beam="2">  1        2 0.35040285E+00 0.81360781E+02</pdfrwt>
<pdfrwt beam="1">  1       -1 0.10901855E+00 0.10220687E+03</pdfrwt>
<totfact> 0.61350487E+00</totfact>
</mgrwt>
</event>
<event>
13    1  0.2101801E-008  0.1456492E+03  0.7546771E-02  0.1256080E+00
          2   -1    0    0  503    0  0.00000000000E+00  0.00000000000E+00  0.12757360105E+04  0.12757360105E+04  0.00000000000E+00 0. -1.
         -1   -1    0    0    0  501 -0.00000000000E+00 -0.00000000000E+00 -0.74107866291E+03  0.74107866291E+03  0.00000000000E+00 0.  1.
         24    2    1    2    0    0  0.38020361999E+03 -0.22993981870E+03  0.40286952798E+03  0.60544763651E+03  0.82679326904E+02 0.  0.
         25    2    1    2    0    0 -0.25597735819E+03  0.11713488548E+03  0.60023711789E+02  0.31380369002E+03  0.12499968237E+03 0.  0.
         24    2    1    2    0    0 -0.20408449614E+03  0.15136026815E+03  0.64751790324E+02  0.27402048655E+03  0.79586558916E+02 0.  0.
        -13    1    5    5    0    0 -0.59858725947E+02  0.66573215059E+02  0.57820313827E+02  0.10657508492E+03  0.00000000000E+00 0.  1.
         14    1    5    5    0    0 -0.14422577019E+03  0.84787053087E+02  0.69314764962E+01  0.16744540163E+03  0.00000000000E+00 0. -1.
        -13    1    3    3    0    0  0.23594934696E+02 -0.38354633399E+02  0.59508690612E+02  0.74626289636E+02  0.00000000000E+00 0.  1.
         14    1    3    3    0    0  0.35660868529E+03 -0.19158518530E+03  0.34336083737E+03  0.53082134687E+03  0.00000000000E+00 0. -1.
          5    1    4    4  502    0 -0.17499986125E+03  0.71593445964E+02  0.98367161740E+02  0.21318715123E+03  0.47000000000E+01 0. -1.
         -5    1    4    4    0  502 -0.80977496938E+02  0.45541439519E+02 -0.38343449951E+02  0.10061653879E+03  0.47000000000E+01 0. -1.
          1    1    1    2  503    0  0.79512006453E+02 -0.12538908894E+03  0.39707802636E+03  0.42392869897E+03  0.00000000000E+00 0. -1.
         -2    1    1    2    0  501  0.34622788366E+00  0.86833754014E+02 -0.39006570887E+03  0.39961416135E+03  0.00000000000E+00 0.  1.
<mgrwt>
<rscale>  0 0.11246052E+03</rscale>
<asrwt>0</asrwt>
<pdfrwt beam="1">  1        2 0.18760824E+00 0.14564922E+03</pdfrwt>
<pdfrwt beam="2">  1       -1 0.10898216E+00 0.86834444E+02</pdfrwt>
<totfact> 0.20492771E+01</totfact>
</mgrwt>
</event>
<event>
13    1  0.2101801E-008  0.5431792E+02  0.7546771E-02  0.1440173E+00
          2   -1    0    0  503    0  0.00000000000E+00  0.00000000000E+00  0.19511771818E+04  0.19511771818E+04  0.00000000000E+00 0. -1.
         -1   -1    0    0    0  501 -0.00000000000E+00 -0.00000000000E+00 -0.10525651836E+04  0.10525651836E+04  0.00000000000E+00 0.  1.
         24    2    1    2    0    0  0.20226157244E+03  0.83397797859E+03  0.21671367936E+03  0.88972444606E+03  0.90640822179E+02 0.  0.
         25    2    1    2    0    0 -0.16761832322E+03 -0.76947416857E+03  0.41244950498E+03  0.89773304468E+03  0.12499450773E+03 0.  0.
         24    2    1    2    0    0 -0.50542352507E+02 -0.56387122390E+02 -0.10862902463E+03  0.16091248149E+03  0.91424967807E+02 0.  0.
        -11    1    3    3    0    0  0.63272256765E+02  0.44479982859E+03  0.12637605215E+03  0.46671315875E+03  0.00000000000E+00 0.  1.
         12    1    3    3    0    0  0.13898931567E+03  0.38917814999E+03  0.90337627206E+02  0.42301128731E+03  0.00000000000E+00 0. -1.
        -13    1    5    5    0    0 -0.62370257456E+02 -0.67665997911E+02 -0.11122960968E+03  0.14436329990E+03  0.00000000000E+00 0.  1.
         14    1    5    5    0    0  0.11827904949E+02  0.11278875521E+02  0.26005850560E+01  0.16549181585E+02  0.00000000000E+00 0. -1.
          5    1    4    4  502    0 -0.17021063802E+03 -0.69718147917E+03  0.40697246080E+03  0.82503475687E+03  0.47000000000E+01 0. -1.
         -5    1    4    4    0  502  0.25923148030E+01 -0.72292689403E+02  0.54770441842E+01  0.72698287808E+02  0.47000000000E+01 0. -1.
          1    1    1    2  503    0  0.33750702591E+01 -0.54278593812E+02  0.71399697156E+03  0.71606510336E+03  0.00000000000E+00 0. -1.
         -2    1    1    2    0  501  0.12524033026E+02  0.46161906191E+02 -0.33591913306E+03  0.33930728984E+03  0.00000000000E+00 0.  1.
<mgrwt>
<rscale>  0 0.50971191E+02</rscale>
<asrwt>0</asrwt>
<pdfrwt beam="1">  1        2 0.28693782E+00 0.54317916E+02</pdfrwt>
<pdfrwt beam="2">  1       -1 0.15478900E+00 0.47830670E+02</pdfrwt>
<totfact> 0.46626008E+00</totfact>
</mgrwt>
</event>
<event>
13    1  0.2101801E-008  0.6438711E+02  0.7546771E-02  0.1434689E+00
          2   -1    0    0  503    0  0.00000000000E+00  0.00000000000E+00  0.38641421949E+04  0.38641421949E+04  0.00000000000E+00 0. -1.
          2   -1    0    0  502    0 -0.00000000000E+00 -0.00000000000E+00 -0.31998578495E+04  0.31998578495E+04  0.00000000000E+00 0. -1.
         24    2    1    2    0    0  0.63328228594E+03 -0.36281022258E+03 -0.95655249215E+03  0.12055340506E+04  0.75113018485E+02 0.  0.
         25    2    1    2    0    0 -0.11731347606E+04 -0.16213838859E+03  0.24845696687E+03  0.12165071948E+04  0.12499946830E+03 0.  0.
         24    2    1    2    0    0  0.57009725463E+03  0.48467567655E+03 -0.59339260602E+03  0.95819009235E+03  0.78051758686E+02 0.  0.
        -11    1    5    5    0    0  0.45839724853E+03  0.41841123293E+03 -0.46452087890E+03  0.77522618909E+03  0.00000000000E+00 0.  1.
         12    1    5    5    0    0  0.11170000609E+03  0.66264443617E+02 -0.12887172711E+03  0.18296390327E+03  0.00000000000E+00 0. -1.
        -13    1    3    3    0    0  0.54052911887E+03 -0.29317583223E+03 -0.84085869443E+03  0.10417135599E+04  0.00000000000E+00 0.  1.
         14    1    3    3    0    0  0.92753167070E+02 -0.69634390348E+02 -0.11569379772E+03  0.16382049063E+03  0.00000000000E+00 0. -1.
          5    1    4    4  501    0 -0.41577852846E+03  0.20817436021E+01  0.79865424349E+02  0.42341078682E+03  0.47000000000E+01 0.  1.
         -5    1    4    4    0  501 -0.75735623217E+03 -0.16422013219E+03  0.16859154252E+03  0.79309640803E+03  0.47000000000E+01 0.  1.
          1    1    1    2  502    0 -0.34539258449E+02 -0.23974916837E+02 -0.85811639328E+03  0.85914579754E+03  0.00000000000E+00 0. -1.
          1    1    1    2  503    0  0.42944785115E+01  0.64247851452E+02  0.28238888699E+04  0.28246229091E+04  0.00000000000E+00 0. -1.
<mgrwt>
<rscale>  0 0.52030152E+02</rscale>
<asrwt>0</asrwt>
<pdfrwt beam="1">  1        2 0.56825620E+00 0.64387107E+02</pdfrwt>
<pdfrwt beam="2">  1        2 0.47056733E+00 0.42044703E+02</pdfrwt>
<totfact> 0.40549383E-01</totfact>
</mgrwt>
</event>
<event>
13    1  0.2101801E-008  0.7550367E+02  0.7546771E-02  0.1365188E+00
          2   -1    0    0  503    0  0.00000000000E+00  0.00000000000E+00  0.96366334171E+03  0.96366334171E+03  0.00000000000E+00 0. -1.
         -3   -1    0    0    0  501 -0.00000000000E+00 -0.00000000000E+00 -0.69976022377E+03  0.69976022377E+03  0.00000000000E+00 0.  1.
         24    2    1    2    0    0  0.75929537950E+01 -0.57465828649E+02 -0.39056816172E+03  0.40217790980E+03  0.76443494001E+02 0.  0.
         25    2    1    2    0    0 -0.61115800036E+02  0.63425374382E+02  0.37700371622E+03  0.40683975261E+03  0.12501545157E+03 0.  0.
         24    2    1    2    0    0  0.64537954546E+02  0.18449372147E+02  0.96685571672E+02  0.14332240018E+03  0.81778259428E+02 0.  0.
        -11    1    5    5    0    0  0.48881334622E+02 -0.40843942358E+01  0.70188648026E+01  0.49551302847E+02  0.00000000000E+00 0.  1.
         12    1    5    5    0    0  0.15656619924E+02  0.22533766383E+02  0.89666706869E+02  0.93771097336E+02  0.00000000000E+00 0. -1.
        -11    1    3    3    0    0  0.15055386837E+02 -0.66193061116E+02 -0.38164624734E+03  0.38763648451E+03  0.00000000000E+00 0.  1.
         12    1    3    3    0    0 -0.74624330421E+01  0.87272324669E+01 -0.89219143799E+01  0.14541425296E+02  0.00000000000E+00 0. -1.
          5    1    4    4  502    0 -0.95763257436E+02  0.22553798495E+02  0.22552987834E+03  0.24609975889E+03  0.47000000000E+01 0.  1.
         -5    1    4    4    0  502  0.34647457400E+02  0.40871575887E+02  0.15147383788E+03  0.16073999372E+03  0.47000000000E+01 0.  1.
          1    1    1    2  503    0 -0.73087686056E+02 -0.20619674891E+02  0.43898088499E+03  0.44550106423E+03  0.00000000000E+00 0. -1.
         -4    1    1    2    0  501  0.62072577752E+02 -0.37892429888E+01 -0.25819889321E+03  0.26558243866E+03  0.00000000000E+00 0.  1.
<mgrwt>
<rscale>  0 0.68523219E+02</rscale>
<asrwt>0</asrwt>
<pdfrwt beam="1">  1        2 0.14171520E+00 0.75503665E+02</pdfrwt>
<pdfrwt beam="2">  1       -3 0.10290592E+00 0.62188128E+02</pdfrwt>
<totfact> 0.16079929E+01</totfact>
</mgrwt>
</event>
<event>
13    1  0.2101801E-008  0.1200070E+03  0.7546771E-02  0.1252964E+00
          2   -1    0    0  503    0  0.00000000000E+00  0.00000000000E+00  0.38303524091E+04  0.38303524091E+04  0.00000000000E+00 0. -1.
          2   -1    0    0  502    0 -0.00000000000E+00 -0.00000000000E+00 -0.22947482125E+04  0.22947482125E+04  0.00000000000E+00 0. -1.
         24    2    1    2    0    0 -0.67144590331E+01  0.95964786759E+01 -0.14983167095E+04  0.15005454753E+04  0.80910970582E+02 0.  0.
         25    2    1    2    0    0  0.11767685772E+03 -0.30502987050E+02  0.10001029267E+04  0.10151898200E+04  0.12500492636E+03 0.  0.
         24    2    1    2    0    0 -0.37686510762E+02 -0.70891448692E+02  0.40160358668E+02  0.11970816566E+03  0.79191665760E+02 0.  0.
        -13    1    3    3    0    0  0.11941750311E+02 -0.30430932445E+02 -0.90371535481E+03  0.90430641354E+03  0.00000000000E+00 0.  1.
         14    1    3    3    0    0 -0.18656209344E+02  0.40027411121E+02 -0.59460135466E+03  0.59623906175E+03  0.00000000000E+00 0. -1.
        -13    1    5    5    0    0 -0.27397059195E+02  0.42973732097E+01  0.33554994945E+02  0.43531643143E+02  0.00000000000E+00 0.  1.
         14    1    5    5    0    0 -0.10289451568E+02 -0.75188821902E+02  0.66053637228E+01  0.76176522515E+02  0.00000000000E+00 0. -1.
          5    1    4    4  501    0  0.72020251941E+02 -0.76697460531E+02  0.71704230258E+03  0.72473524188E+03  0.47000000000E+01 0.  1.
         -5    1    4    4    0  501  0.45656605780E+02  0.46194473480E+02  0.28306062415E+03  0.29045457816E+03  0.47000000000E+01 0.  1.
          1    1    1    2  502    0  0.61178400582E+02  0.12487292684E+03 -0.73976966616E+03  0.75272518460E+03  0.00000000000E+00 0. -1.
          1    1    1    2  503    0 -0.13445428851E+03 -0.33074969774E+02  0.27334272867E+04  0.27369319760E+04  0.00000000000E+00 0. -1.
<mgrwt>
<rscale>  0 0.11421165E+03</rscale>
<asrwt>0</asrwt>
<pdfrwt beam="1">  1        2 0.56328712E+00 0.12000699E+03</pdfrwt>
<pdfrwt beam="2">  1        2 0.33746297E+00 0.10869617E+03</pdfrwt>
<totfact> 0.93633469E-01</totfact>
</mgrwt>
</event>
<event>
13    1  0.2101801E-008  0.9640418E+02  0.7546771E-02  0.1345167E+00
          2   -1    0    0  502    0  0.00000000000E+00  0.00000000000E+00  0.20570854394E+04  0.20570854394E+04  0.00000000000E+00 0. -1.
          2   -1    0    0  503    0 -0.00000000000E+00 -0.00000000000E+00 -0.27614302525E+04  0.27614302525E+04  0.00000000000E+00 0. -1.
         24    2    1    2    0    0 -0.25890224603E+03  0.76718130992E+02 -0.86797577134E+02  0.29503042956E+03  0.81197846943E+02 0.  0.
         25    2    1    2    0    0  0.16304332190E+03 -0.16667160742E+03  0.11962816709E+04  0.12251845404E+04  0.12499908917E+03 0.  0.
         24    2    1    2    0    0  0.76222711076E+02  0.32835904175E+02  0.54293387084E+03  0.55490969993E+03  0.79116930394E+02 0.  0.
        -13    1    3    3    0    0 -0.20265363223E+03  0.32102213355E+02 -0.87926983167E+02  0.22322679303E+03  0.00000000000E+00 0.  1.
         14    1    3    3    0    0 -0.56248613810E+02  0.44615917636E+02  0.11294060329E+01  0.71803636538E+02  0.00000000000E+00 0. -1.
        -13    1    5    5    0    0 -0.12284121758E+02 -0.10116221349E+02  0.92353762195E+02  0.93714753232E+02  0.00000000000E+00 0.  1.
         14    1    5    5    0    0  0.88506832835E+02  0.42952125524E+02  0.45058010865E+03  0.46119494669E+03  0.00000000000E+00 0. -1.
          5    1    4    4  501    0  0.30227803814E+01 -0.76321927635E+02  0.45876874029E+03  0.46510753693E+03  0.47000000000E+01 0. -1.
         -5    1    4    4    0  501  0.16002054152E+03 -0.90349679785E+02  0.73751293059E+03  0.76007700342E+03  0.47000000000E+01 0. -1.
          1    1    1    2  502    0 -0.57699422836E+02 -0.47897673285E+00  0.18807482672E+03  0.19672720519E+03  0.00000000000E+00 0. -1.
          1    1    1    2  503    0  0.77335635894E+02  0.57596548986E+02 -0.25448376044E+04  0.25466638168E+04  0.00000000000E+00 0. -1.
<mgrwt>
<rscale>  0 0.74583225E+02</rscale>
<asrwt>0</asrwt>
<pdfrwt beam="1">  1        2 0.30251256E+00 0.57701411E+02</pdfrwt>
<pdfrwt beam="2">  1        2 0.40609268E+00 0.96404184E+02</pdfrwt>
<totfact> 0.55178475E+00</totfact>
</mgrwt>
</event>
<event>
13    1  0.2101801E-008  0.7328506E+02  0.7546771E-02  0.1359052E+00
          2   -1    0    0  503    0  0.00000000000E+00  0.00000000000E+00  0.94198553202E+03  0.94198553202E+03  0.00000000000E+00 0. -1.
          2   -1    0    0  502    0 -0.00000000000E+00 -0.00000000000E+00 -0.14178399789E+04  0.14178399789E+04  0.00000000000E+00 0. -1.
         24    2    1    2    0    0  0.49034138846E+02  0.37637773038E+02 -0.52105118308E+03  0.53091679930E+03  0.80977550293E+02 0.  0.
         25    2    1    2    0    0 -0.62679766095E+01 -0.17219053175E+03  0.25082984875E+02  0.21434179979E+03  0.12499753697E+03 0.  0.
         24    2    1    2    0    0  0.43036479867E+02  0.67960641416E+02  0.10501644776E+03  0.15640823613E+03  0.83452349563E+02 0.  0.
        -11    1    5    5    0    0  0.12287374078E+01  0.63089590938E+01 -0.14339844562E+02  0.15714448846E+02  0.00000000000E+00 0.  1.
         12    1    5    5    0    0  0.41807742459E+02  0.61651682323E+02  0.11935629232E+03  0.14069378728E+03  0.00000000000E+00 0. -1.
        -13    1    3    3    0    0  0.35663323022E+02  0.10916684507E+02 -0.73994792828E+02  0.82862995210E+02  0.00000000000E+00 0.  1.
         14    1    3    3    0    0  0.13370815824E+02  0.26721088531E+02 -0.44705639025E+03  0.44805380409E+03  0.00000000000E+00 0. -1.
          5    1    4    4  501    0  0.42728226017E+02 -0.19963856780E+02  0.26596505756E+02  0.54348146192E+02  0.47000000000E+01 0.  1.
         -5    1    4    4    0  501 -0.48996202626E+02 -0.15222667497E+03 -0.15135208805E+01  0.15999365359E+03  0.47000000000E+01 0.  1.
          1    1    1    2  502    0 -0.67314026482E+02 -0.42820366888E+01 -0.76809516068E+03  0.77105102935E+03  0.00000000000E+00 0. -1.
          1    1    1    2  503    0 -0.18488615622E+02  0.70874153985E+02  0.68319246420E+03  0.68710764641E+03  0.00000000000E+00 0. -1.
<mgrwt>
<rscale>  0 0.70307065E+02</rscale>
<asrwt>0</asrwt>
<pdfrwt beam="1">  1        2 0.13852729E+00 0.73285057E+02</pdfrwt>
<pdfrwt beam="2">  1        2 0.20850588E+00 0.67450085E+02</pdfrwt>
<totfact> 0.90851830E+01</totfact>
</mgrwt>
</event>
<event>
13    1  0.2101801E-008  0.1246112E+03  0.7546771E-02  0.1248330E+00
          2   -1    0    0  502    0  0.00000000000E+00  0.00000000000E+00  0.13152971836E+04  0.13152971836E+04  0.00000000000E+00 0. -1.
          2   -1    0    0  503    0 -0.00000000000E+00 -0.00000000000E+00 -0.93745366189E+03  0.93745366189E+03  0.00000000000E+00 0. -1.
         24    2    1    2    0    0  0.10866278256E+03  0.70165143512E+02  0.22206422367E+03  0.26898670778E+03  0.79439170772E+02 0.  0.
         25    2    1    2    0    0  0.39633946671E+02  0.18624909109E+03  0.59035392328E+03  0.63277410743E+03  0.12500297056E+03 0.  0.
         24    2    1    2    0    0 -0.80315134319E+02 -0.84207672410E+02  0.59907223747E+02  0.15502695672E+03  0.83084468820E+02 0.  0.
        -11    1    5    5    0    0  0.17586238024E+02 -0.13685664049E+02  0.10741089915E+02  0.24737505550E+02  0.00000000000E+00 0.  1.
         12    1    5    5    0    0 -0.97901372342E+02 -0.70522008362E+02  0.49166133833E+02  0.13028945117E+03  0.00000000000E+00 0. -1.
        -11    1    3    3    0    0  0.54251920090E+02  0.78868303628E+02  0.15514786059E+03  0.18230287654E+03  0.00000000000E+00 0.  1.
         12    1    3    3    0    0  0.54410862469E+02 -0.87031601158E+01  0.66916363079E+02  0.86683831239E+02  0.00000000000E+00 0. -1.
          5    1    4    4  501    0  0.59694467601E+01 -0.29633218199E+01  0.17389393129E+03  0.17408505079E+03  0.47000000000E+01 0.  1.
         -5    1    4    4    0  501  0.33664499911E+02  0.18921241291E+03  0.41645999199E+03  0.45868905664E+03  0.47000000000E+01 0.  1.
          1    1    1    2  502    0 -0.96970209180E+02 -0.51148581579E+02  0.33742804190E+03  0.35479160408E+03  0.00000000000E+00 0. -1.
          1    1    1    2  503    0  0.28988614269E+02 -0.12105798061E+03 -0.83190989091E+03  0.84117146945E+03  0.00000000000E+00 0. -1.
<mgrwt>
<rscale>  0 0.11688244E+03</rscale>
<asrwt>0</asrwt>
<pdfrwt beam="1">  1        2 0.19342606E+00 0.10963302E+03</pdfrwt>
<pdfrwt beam="2">  1        2 0.13786083E+00 0.12461122E+03</pdfrwt>
<totfact> 0.97175095E+01</totfact>
</mgrwt>
</event>
<event>
13    1  0.2101801E-008  0.1194170E+03  0.7546771E-02  0.1269008E+00
          2   -1    0    0  502    0  0.00000000000E+00  0.00000000000E+00  0.43891448079E+04  0.43891448079E+04  0.00000000000E+00 0. -1.
          2   -1    0    0  503    0 -0.00000000000E+00 -0.00000000000E+00 -0.24414937103E+04  0.24414937103E+04  0.00000000000E+00 0. -1.
         24    2    1    2    0    0 -0.56510570488E+02  0.74351700905E+03  0.60323431620E+03  0.96244661690E+03  0.80005392396E+02 0.  0.
         25    2    1    2    0    0 -0.99107165755E+03 -0.18348846031E+03  0.57231035593E+03  0.11657850721E+04  0.12499858119E+03 0.  0.
         24    2    1    2    0    0  0.10484394327E+04 -0.63576973502E+03  0.34210274986E+03  0.12761140284E+04  0.89466876756E+02 0.  0.
        -11    1    3    3    0    0  0.20128833190E+02  0.20156367373E+03  0.15916250337E+03  0.25761557984E+03  0.00000000000E+00 0.  1.
         12    1    3    3    0    0 -0.76639403679E+02  0.54195333532E+03  0.44407181283E+03  0.70483103707E+03  0.00000000000E+00 0. -1.
        -13    1    5    5    0    0  0.27908729520E+03 -0.15106871835E+03  0.51515199347E+02  0.32150473056E+03  0.00000000000E+00 0.  1.
         14    1    5    5    0    0  0.76935213749E+03 -0.48470101667E+03  0.29058755052E+03  0.95460929784E+03  0.00000000000E+00 0. -1.
          5    1    4    4  501    0 -0.48561565561E+03 -0.34351807206E+02  0.24054256035E+03  0.54303353945E+03  0.47000000000E+01 0.  1.
         -5    1    4    4    0  501 -0.50545600194E+03 -0.14913665311E+03  0.33176779559E+03  0.62275153262E+03  0.47000000000E+01 0.  1.
          1    1    1    2  502    0  0.92464706464E+02  0.75792844014E+02  0.19248383739E+04  0.19285479104E+04  0.00000000000E+00 0. -1.
          1    1    1    2  503    0 -0.93321911115E+02 -0.51657734439E-01 -0.14948346982E+04  0.14977448904E+04  0.00000000000E+00 0. -1.
<mgrwt>
<rscale>  0 0.10556623E+03</rscale>
<asrwt>0</asrwt>
<pdfrwt beam="1">  1        2 0.64546248E+00 0.11941704E+03</pdfrwt>
<pdfrwt beam="2">  1        2 0.35904319E+00 0.93321925E+02</pdfrwt>
<totfact> 0.32886703E-01</totfact>
</mgrwt>
</event>
<event>
13    1  0.2101801E-008  0.1478686E+03  0.7546771E-02  0.1241684E+00
          2   -1    0    0  503    0  0.00000000000E+00  0.00000000000E+00  0.36684772669E+04  0.36684772669E+04  0.00000000000E+00 0. -1.
          2   -1    0    0  502    0 -0.00000000000E+00 -0.00000000000E+00 -0.21779100571E+04  0.21779100571E+04  0.00000000000E+00 0. -1.
         24    2    1    2    0    0 -0.25858033511E+03  0.38484124537E+03 -0.79735934784E+03  0.92477966899E+03  0.66850076728E+02 0.  0.
         25    2    1    2    0    0 -0.31902988243E+02 -0.14259622378E+03  0.17714510399E+03  0.26145301840E+03  0.12500323703E+03 0.  0.
         24    2    1    2    0    0  0.52207582157E+03 -0.26346010236E+03  0.57167525212E+03  0.82174563405E+03  0.80491640449E+02 0.  0.
        -11    1    5    5    0    0  0.25987963667E+03 -0.10693581707E+03  0.22692468041E+03  0.36120285866E+03  0.00000000000E+00 0.  1.
         12    1    5    5    0    0  0.26219618490E+03 -0.15652428529E+03  0.34475057171E+03  0.46054277538E+03  0.00000000000E+00 0. -1.
        -11    1    3    3    0    0 -0.74578585093E+02  0.16441923492E+03 -0.33390083734E+03  0.37958585240E+03  0.00000000000E+00 0.  1.
         12    1    3    3    0    0 -0.18400175002E+03  0.22042201045E+03 -0.46345851050E+03  0.54519381659E+03  0.00000000000E+00 0. -1.
          5    1    4    4  501    0 -0.26988507948E+02 -0.42513489091E+02 -0.76848084429E+01  0.51155865712E+02  0.47000000000E+01 0.  1.
         -5    1    4    4    0  501 -0.49144802952E+01 -0.10008273469E+03  0.18482991244E+03  0.21029715269E+03  0.47000000000E+01 0.  1.
          1    1    1    2  502    0 -0.86327077236E+02  0.48023237685E+02 -0.11454950785E+04  0.11497467418E+04  0.00000000000E+00 0. -1.
          1    1    1    2  503    0 -0.14526542098E+03 -0.26808156917E+02  0.26846012800E+04  0.26886622607E+04  0.00000000000E+00 0. -1.
<mgrwt>
<rscale>  0 0.12086060E+03</rscale>
<asrwt>0</asrwt>
<pdfrwt beam="1">  1        2 0.53948195E+00 0.14786856E+03</pdfrwt>
<pdfrwt beam="2">  1        2 0.32028089E+00 0.98785604E+02</pdfrwt>
<totfact> 0.13142334E+00</totfact>
</mgrwt>
</event>
<event>
13    1  0.2101801E-008  0.3008465E+02  0.7546771E-02  0.1646067E+00
          2   -1    0    0  503    0  0.00000000000E+00  0.00000000000E+00  0.11209734785E+04  0.11209734785E+04  0.00000000000E+00 0. -1.
          2   -1    0    0  502    0 -0.00000000000E+00 -0.00000000000E+00 -0.73460785710E+03  0.73460785710E+03  0.00000000000E+00 0. -1.
         24    2    1    2    0    0 -0.20430289633E+02  0.19943985816E+01 -0.14946381667E+03  0.17106052205E+03  0.80628130026E+02 0.  0.
         25    2    1    2    0    0  0.84019307108E+02 -0.14872177884E+03  0.32389102067E+03  0.38690741195E+03  0.12495815571E+03 0.  0.
         24    2    1    2    0    0 -0.69020627629E+02  0.10447834254E+03 -0.53968666683E+02  0.15771814936E+03  0.79264282975E+02 0.  0.
        -11    1    3    3    0    0  0.20128467844E+02 -0.14877106954E+02 -0.14057732784E+02  0.28707200841E+02  0.00000000000E+00 0.  1.
         12    1    3    3    0    0 -0.40558757477E+02  0.16871505536E+02 -0.13540608388E+03  0.14235332121E+03  0.00000000000E+00 0. -1.
        -13    1    5    5    0    0 -0.86583891231E+02  0.80862469127E+02 -0.47138526479E+02  0.12750509720E+03  0.00000000000E+00 0.  1.
         14    1    5    5    0    0  0.17563263602E+02  0.23615873414E+02 -0.68301402037E+01  0.30213052157E+02  0.00000000000E+00 0. -1.
          5    1    4    4  501    0 -0.21577804073E+02 -0.74701184579E+02  0.16302808181E+03  0.18068235681E+03  0.47000000000E+01 0.  1.
         -5    1    4    4    0  501  0.10559711118E+03 -0.74020594257E+02  0.16086293887E+03  0.20622505513E+03  0.47000000000E+01 0.  1.
          1    1    1    2  502    0 -0.12999354438E+02  0.18480277208E+02 -0.43637992340E+03  0.43696446240E+03  0.00000000000E+00 0. -1.
          1    1    1    2  503    0  0.18430964592E+02  0.23768760506E+02  0.70228700747E+03  0.70293078983E+03  0.00000000000E+00 0. -1.
<mgrwt>
<rscale>  0 0.26071876E+02</rscale>
<asrwt>0</asrwt>
<pdfrwt beam="1">  1        2 0.16484904E+00 0.30084655E+02</pdfrwt>
<pdfrwt beam="2">  1        2 0.10803057E+00 0.22594333E+02</pdfrwt>
<totfact> 0.18887384E+02</totfact>
</mgrwt>
</event>
<event>
13    1  0.2101801E-008  0.1489378E+03  0.7546771E-02  0.1334517E+00
          2   -1    0    0  502    0  0.00000000000E+00  0.00000000000E+00  0.17262094387E+04  0.17262094387E+04  0.00000000000E+00 0. -1.
          2   -1    0    0  503    0 -0.00000000000E+00 -0.00000000000E+00 -0.28940359018E+04  0.28940359018E+04  0.00000000000E+00 0. -1.
         24    2    1    2    0    0  0.89200755980E+03 -0.43460559055E+03 -0.14441788483E+04  0.17539581388E+04  0.78467193507E+02 0.  0.
         25    2    1    2    0    0 -0.30734245381E+03  0.91400149208E+02 -0.18004030495E+03  0.38839821350E+03  0.12500115860E+03 0.  0.
         24    2    1    2    0    0 -0.49074672978E+03  0.28714555853E+03  0.11024088378E+04  0.12428328562E+04  0.77738911582E+02 0.  0.
        -11    1    5    5    0    0 -0.32963926532E+03  0.17018491174E+03  0.64703769186E+03  0.74584363248E+03  0.00000000000E+00 0.  1.
         12    1    5    5    0    0 -0.16110746446E+03  0.11696064680E+03  0.45537114589E+03  0.49698922374E+03  0.00000000000E+00 0. -1.
        -11    1    3    3    0    0  0.34975408447E+03 -0.12962995794E+03 -0.52390893861E+03  0.64312706486E+03  0.00000000000E+00 0.  1.
         12    1    3    3    0    0  0.54225347533E+03 -0.30497563260E+03 -0.92026990972E+03  0.11108310739E+04  0.00000000000E+00 0. -1.
          5    1    4    4  501    0 -0.18523460841E+03  0.47163405051E+02 -0.17364100952E+03  0.25828189467E+03  0.47000000000E+01 0.  1.
         -5    1    4    4    0  501 -0.12210784541E+03  0.44236744158E+02 -0.63992954304E+01  0.13011631883E+03  0.47000000000E+01 0.  1.
          1    1    1    2  502    0 -0.12248185813E+03  0.85416249927E+02  0.27510840473E+03  0.31302136617E+03  0.00000000000E+00 0. -1.
          1    1    1    2  503    0  0.28563481917E+02 -0.29356367120E+02 -0.92112455225E+03  0.92203476591E+03  0.00000000000E+00 0. -1.
<mgrwt>
<rscale>  0 0.78105021E+02</rscale>
<asrwt>0</asrwt>
<pdfrwt beam="1">  1        2 0.25385433E+00 0.14893775E+03</pdfrwt>
<pdfrwt beam="2">  1        2 0.42559351E+00 0.40959355E+02</pdfrwt>
<totfact> 0.70802101E+00</totfact>
</mgrwt>
</event>
<event>
13    1  0.2101801E-008  0.1401236E+03  0.7546771E-02  0.1290610E+00
          2   -1    0    0  502    0  0.00000000000E+00  0.00000000000E+00  0.24157273981E+04  0.24157273981E+04  0.00000000000E+00 0. -1.
          2   -1    0    0  503    0 -0.00000000000E+00 -0.00000000000E+00 -0.27715481275E+04  0.27715481275E+04  0.00000000000E+00 0. -1.
         24    2    1    2    0    0  0.16938610421E+03  0.17511095665E+03 -0.13045561445E+04  0.13295399777E+04  0.80338775907E+02 0.  0.
         25    2    1    2    0    0 -0.69413814531E+02 -0.48938001046E+03  0.25671811173E+03  0.57083440226E+03  0.12504660586E+03 0.  0.
         24    2    1    2    0    0 -0.99234334353E+02  0.12185859320E+03 -0.83325124817E+03  0.85177935616E+03  0.80767933969E+02 0.  0.
        -11    1    3    3    0    0 -0.21906494109E+00  0.16657975636E+02 -0.32926173095E+02  0.36900799672E+02  0.00000000000E+00 0.  1.
         12    1    3    3    0    0  0.16960516915E+03  0.15845298102E+03 -0.12716299714E+04  0.12926391781E+04  0.00000000000E+00 0. -1.
        -13    1    5    5    0    0 -0.70856250024E+02  0.37903949418E+02 -0.27365792308E+03  0.28521216036E+03  0.00000000000E+00 0.  1.
         14    1    5    5    0    0 -0.28378084330E+02  0.83954643777E+02 -0.55959332509E+03  0.56656719581E+03  0.00000000000E+00 0. -1.
          5    1    4    4  501    0 -0.65319758659E+02 -0.49626267828E+03  0.25204442223E+03  0.56043893289E+03  0.47000000000E+01 0.  1.
         -5    1    4    4    0  501 -0.40940558719E+01  0.68826678254E+01  0.46736894995E+01  0.10395469370E+02  0.47000000000E+01 0. -1.
          1    1    1    2  502    0 -0.31080644181E+02  0.56802083457E+02  0.19690388135E+04  0.19701031273E+04  0.00000000000E+00 0. -1.
          1    1    1    2  503    0  0.30342688858E+02  0.13560837715E+03 -0.44377026203E+03  0.46501866219E+03  0.00000000000E+00 0. -1.
<mgrwt>
<rscale>  0 0.95251864E+02</rscale>
<asrwt>0</asrwt>
<pdfrwt beam="1">  1        2 0.35525403E+00 0.64749387E+02</pdfrwt>
<pdfrwt beam="2">  1        2 0.40758061E+00 0.14012361E+03</pdfrwt>
<totfact> 0.34447523E+00</totfact>
</mgrwt>
</event>
<event>
13    1  0.2101801E-008  0.1156716E+03  0.7546771E-02  0.1327399E+00
          2   -1    0    0  503    0  0.00000000000E+00  0.00000000000E+00  0.14770889350E+04  0.14770889350E+04  0.00000000000E+00 0. -1.
          2   -1    0    0  502    0 -0.00000000000E+00 -0.00000000000E+00 -0.96512166518E+03  0.96512166518E+03  0.00000000000E+00 0. -1.
         24    2    1    2    0    0 -0.21466320168E+02 -0.28686876565E+02 -0.55109913198E+02  0.10138772022E+03  0.77192146552E+02 0.  0.
         25    2    1    2    0    0  0.80082182681E+02 -0.17561195374E+03  0.62635423076E+03  0.66722887803E+03  0.12498815547E+03 0.  0.
         24    2    1    2    0    0  0.27748386729E+02  0.58203491403E+02  0.25741617593E+03  0.27748876415E+03  0.81112928843E+02 0.  0.
        -11    1    3    3    0    0 -0.29783582854E+02 -0.12881664439E+02  0.99338821960E+01  0.33936427358E+02  0.00000000000E+00 0.  1.
         12    1    3    3    0    0  0.83172626864E+01 -0.15805212126E+02 -0.65043795394E+02  0.67451292858E+02  0.00000000000E+00 0. -1.
        -11    1    5    5    0    0 -0.18458780621E+02 -0.76434037854E+01  0.28144456459E+02  0.34514614772E+02  0.00000000000E+00 0.  1.
         12    1    5    5    0    0  0.46207167350E+02  0.65846895189E+02  0.22927171947E+03  0.24297414938E+03  0.00000000000E+00 0. -1.
          5    1    4    4  501    0  0.79989513406E+02 -0.17424393281E+03  0.43019544781E+03  0.47100900595E+03  0.47000000000E+01 0.  1.
         -5    1    4    4    0  501  0.92669275574E-01 -0.13680209347E+01  0.19615878295E+03  0.19621987208E+03  0.47000000000E+01 0.  1.
          1    1    1    2  502    0 -0.36224952879E+02  0.17135207537E+03 -0.84594473234E+03  0.86388440842E+03  0.00000000000E+00 0. -1.
          1    1    1    2  503    0 -0.50139296363E+02 -0.25256736466E+02  0.52925150867E+03  0.53222082936E+03  0.00000000000E+00 0. -1.
<mgrwt>
<rscale>  0 0.80585120E+02</rscale>
<asrwt>0</asrwt>
<pdfrwt beam="1">  1        2 0.21721896E+00 0.56141355E+02</pdfrwt>
<pdfrwt beam="2">  1        2 0.14192966E+00 0.11567162E+03</pdfrwt>
<totfact> 0.81870492E+01</totfact>
</mgrwt>
</event>
<event>
13    1  0.2101801E-008  0.1899754E+03  0.7546771E-02  0.1331058E+00
          2   -1    0    0  503    0  0.00000000000E+00  0.00000000000E+00  0.28684842956E+04  0.28684842956E+04  0.00000000000E+00 0. -1.
          2   -1    0    0  502    0 -0.00000000000E+00 -0.00000000000E+00 -0.36471399671E+04  0.36471399671E+04  0.00000000000E+00 0. -1.
         24    2    1    2    0    0  0.15792998703E+03  0.97560181132E+02 -0.11375744388E+03  0.23286776513E+03  0.82624271564E+02 0.  0.
         25    2    1    2    0    0 -0.17967680298E+03  0.98487645235E+01  0.17553668609E+04  0.17689881691E+04  0.12500229667E+03 0.  0.
         24    2    1    2    0    0  0.29773448815E+02  0.13178431886E+03  0.80467071068E+01  0.15947852039E+03  0.84350957428E+02 0.  0.
        -11    1    3    3    0    0  0.15060568969E+03  0.55591179240E+02 -0.91983149059E+02  0.18502257345E+03  0.00000000000E+00 0.  1.
         12    1    3    3    0    0  0.73242973381E+01  0.41969001892E+02 -0.21774294824E+02  0.47845191674E+02  0.00000000000E+00 0. -1.
        -13    1    5    5    0    0 -0.10929057625E+02  0.10563747677E+03 -0.12469317517E+02  0.10693084063E+03  0.00000000000E+00 0.  1.
         14    1    5    5    0    0  0.40702506440E+02  0.26146842093E+02  0.20516024624E+02  0.52547679762E+02  0.00000000000E+00 0. -1.
          5    1    4    4  501    0 -0.18258697948E+03  0.11511265977E+01  0.12269448925E+04  0.12404657147E+04  0.47000000000E+01 0.  1.
         -5    1    4    4    0  501  0.29101765025E+01  0.86976379258E+01  0.52842196839E+03  0.52852245431E+03  0.47000000000E+01 0.  1.
          1    1    1    2  502    0 -0.18223578159E+02 -0.20770391184E+03 -0.33878104219E+04  0.33942204508E+04  0.00000000000E+00 0. -1.
          1    1    1    2  503    0  0.10196945293E+02 -0.31489352682E+02  0.95949862630E+03  0.96006935733E+03  0.00000000000E+00 0. -1.
<mgrwt>
<rscale>  0 0.79297131E+02</rscale>
<asrwt>0</asrwt>
<pdfrwt beam="1">  1        2 0.42183593E+00 0.33099200E+02</pdfrwt>
<pdfrwt beam="2">  1        2 0.53634411E+00 0.18997544E+03</pdfrwt>
<totfact> 0.69727863E-01</totfact>
</mgrwt>
</event>
<event>
13    1  0.2101801E-008  0.1600813E+03  0.7546771E-02  0.1224483E+00
          2   -1    0    0  502    0  0.00000000000E+00  0.00000000000E+00  0.16701043296E+04  0.16701043296E+04  0.00000000000E+00 0. -1.
          2   -1    0    0  503    0 -0.00000000000E+00 -0.00000000000E+00 -0.65584533794E+03  0.65584533794E+03  0.00000000000E+00 0. -1.
         24    2    1    2    0    0  0.69583364442E+02  0.95882811264E+01 -0.28719438241E+03  0.30663989222E+03  0.81324230528E+02 0.  0.
         25    2    1    2    0    0 -0.28207575072E+03  0.14363622279E+03  0.27514618233E+03  0.43763408840E+03  0.12498031860E+03 0.  0.
         24    2    1    2    0    0  0.10609492569E+03  0.23026706364E+02  0.40997536626E+01  0.13468606622E+03  0.79606318790E+02 0.  0.
        -13    1    5    5    0    0 -0.11935638237E+02  0.51932761890E+01 -0.70379829959E+01  0.14797391066E+02  0.00000000000E+00 0.  1.
         14    1    5    5    0    0  0.11803056393E+03  0.17833430175E+02  0.11137736658E+02  0.11988867516E+03  0.00000000000E+00 0. -1.
        -13    1    3    3    0    0  0.11503354309E+02 -0.30910825619E+02 -0.13197021769E+03  0.13602920517E+03  0.00000000000E+00 0.  1.
         14    1    3    3    0    0  0.58080010133E+02  0.40499106746E+02 -0.15522416472E+03  0.17061068705E+03  0.00000000000E+00 0. -1.
          5    1    4    4  501    0 -0.20214526764E+03  0.15505712737E+03  0.17599760859E+03  0.30968156259E+03  0.47000000000E+01 0.  1.
         -5    1    4    4    0  501 -0.79930483080E+02 -0.11420904582E+02  0.99148573733E+02  0.12795252581E+03  0.47000000000E+01 0.  1.
          1    1    1    2  502    0  0.13835624148E+03 -0.60687100414E+02  0.12126067657E+04  0.12219822183E+04  0.00000000000E+00 0. -1.
          1    1    1    2  503    0 -0.31958780895E+02 -0.11556410986E+03 -0.19039932761E+03  0.22500740236E+03  0.00000000000E+00 0. -1.
<mgrwt>
<rscale>  0 0.13202405E+03</rscale>
<asrwt>0</asrwt>
<pdfrwt beam="1">  1        2 0.24560358E+00 0.16008125E+03</pdfrwt>
<pdfrwt beam="2">  1        2 0.96447844E-01 0.10888439E+03</pdfrwt>
<totfact> 0.96923729E+01</totfact>
</mgrwt>
</event>
<event>
13    1  0.2101801E-008  0.7740832E+02  0.7546771E-02  0.1375246E+00
         -1   -1    0    0    0  501 -0.00000000000E+00  0.00000000000E+00  0.16010764992E+04  0.16010764992E+04  0.00000000000E+00 0.  1.
          2   -1    0    0  503    0  0.00000000000E+00 -0.00000000000E+00 -0.28381786042E+04  0.28381786042E+04  0.00000000000E+00 0. -1.
         24    2    1    2    0    0  0.35986054076E+03 -0.54843289616E+03 -0.56673712165E+03  0.87006819369E+03  0.74494605409E+02 0.  0.
         25    2    1    2    0    0 -0.14004675046E+03  0.44508568774E+03 -0.58415457608E+03  0.75800807460E+03  0.12500124263E+03 0.  0.
         24    2    1    2    0    0 -0.26860058354E+03 -0.11604333398E+02 -0.35631394768E+03  0.45377828712E+03  0.81695596716E+02 0.  0.
        -13    1    3    3    0    0  0.21220253617E+03 -0.36133096633E+03 -0.32217413116E+03  0.52856991437E+03  0.00000000000E+00 0.  1.
         14    1    3    3    0    0  0.14765800459E+03 -0.18710192983E+03 -0.24456299049E+03  0.34149827933E+03  0.00000000000E+00 0. -1.
        -13    1    5    5    0    0 -0.25903472517E+03  0.48306885134E+01 -0.34567639491E+03  0.43198899800E+03  0.00000000000E+00 0.  1.
         14    1    5    5    0    0 -0.95658583714E+01 -0.16435021912E+02 -0.10637552768E+02  0.21789289124E+02  0.00000000000E+00 0. -1.
          5    1    4    4  502    0 -0.10516794183E+03  0.27338538699E+03 -0.45142870784E+03  0.53815409882E+03  0.47000000000E+01 0. -1.
         -5    1    4    4    0  502 -0.34878808623E+02  0.17170030075E+03 -0.13272586823E+03  0.21985397578E+03  0.47000000000E+01 0. -1.
          1    1    1    2  503    0 -0.11063972642E+01  0.55802623982E+02 -0.10417613513E+04  0.10432554194E+04  0.00000000000E+00 0. -1.
         -2    1    1    2    0  501  0.49893190494E+02  0.59148917835E+02  0.13118648917E+04  0.13141451286E+04  0.00000000000E+00 0.  1.
<mgrwt>
<rscale>  0 0.65730025E+02</rscale>
<asrwt>0</asrwt>
<pdfrwt beam="2">  1        2 0.41737920E+00 0.55813591E+02</pdfrwt>
<pdfrwt beam="1">  1       -1 0.23545243E+00 0.77408316E+02</pdfrwt>
<totfact> 0.49347151E-01</totfact>
</mgrwt>
</event>
<event>
13    1  0.2101801E-008  0.1319551E+03  0.7546771E-02  0.1409508E+00
          2   -1    0    0  503    0  0.00000000000E+00  0.00000000000E+00  0.18844876197E+04  0.18844876197E+04  0.00000000000E+00 0. -1.
          2   -1    0    0  502    0 -0.00000000000E+00 -0.00000000000E+00 -0.10733138252E+04  0.10733138252E+04  0.00000000000E+00 0. -1.
         24    2    1    2    0    0 -0.27930000820E+01 -0.65031029422E+02 -0.15909803358E+03  0.18955352636E+03  0.79884412927E+02 0.  0.
         25    2    1    2    0    0  0.14683658706E+03  0.11540687746E+03  0.36947551806E+03  0.43245517483E+03  0.12500235649E+03 0.  0.
         24    2    1    2    0    0 -0.25732536369E+02  0.32135815890E+02  0.12450570225E+04  0.12483243239E+04  0.80322813276E+02 0.  0.
        -11    1    3    3    0    0 -0.73937826612E+00 -0.47896278785E+02 -0.24407168695E+02  0.53761604193E+02  0.00000000000E+00 0.  1.
         12    1    3    3    0    0 -0.20536218159E+01 -0.17134750637E+02 -0.13469086489E+03  0.13579192217E+03  0.00000000000E+00 0. -1.
        -11    1    5    5    0    0 -0.50103536942E+01 -0.12589407738E+02  0.39488757017E+02  0.41748757611E+02  0.00000000000E+00 0.  1.
         12    1    5    5    0    0 -0.20722182675E+02  0.44725223628E+02  0.12055682655E+04  0.12065755663E+04  0.00000000000E+00 0. -1.
          5    1    4    4  501    0  0.11130605376E+02 -0.87195790828E+00 -0.81850544335E+01  0.14619705972E+02  0.47000000000E+01 0.  1.
         -5    1    4    4    0  501  0.13570598168E+03  0.11627883536E+03  0.37766057250E+03  0.41783546886E+03  0.47000000000E+01 0.  1.
          1    1    1    2  502    0 -0.11490609547E+03 -0.57860551536E+02 -0.86036776435E+03  0.86993329867E+03  0.00000000000E+00 0. -1.
          1    1    1    2  503    0 -0.34049551367E+01 -0.24651112387E+02  0.21610705187E+03  0.21753512114E+03  0.00000000000E+00 0. -1.
<mgrwt>
<rscale>  0 0.57303782E+02</rscale>
<asrwt>0</asrwt>
<pdfrwt beam="1">  1        2 0.27713053E+00 0.24885157E+02</pdfrwt>
<pdfrwt beam="2">  1        2 0.15784027E+00 0.13195510E+03</pdfrwt>
<totfact> 0.49471079E+01</totfact>
</mgrwt>
</event>
<event>
13    1  0.2101801E-008  0.1348989E+03  0.7546771E-02  0.1273629E+00
          2   -1    0    0  502    0  0.00000000000E+00  0.00000000000E+00  0.53362980886E+03  0.53362980886E+03  0.00000000000E+00 0. -1.
          2   -1    0    0  503    0 -0.00000000000E+00 -0.00000000000E+00 -0.17771760218E+04  0.17771760218E+04  0.00000000000E+00 0. -1.
         24    2    1    2    0    0 -0.29304629409E+02  0.12076877680E+03 -0.28887421349E+03  0.32485320280E+03  0.81470444908E+02 0.  0.
         25    2    1    2    0    0  0.14998263511E+03 -0.16058887574E+02 -0.10314851164E+03  0.22143016991E+03  0.12505609136E+03 0.  0.
         24    2    1    2    0    0 -0.32419543944E+02 -0.65784761102E+02 -0.45517210526E+03  0.46792605158E+03  0.79965509543E+02 0.  0.
        -11    1    5    5    0    0 -0.54963158628E+02 -0.49117630209E+02 -0.39114246752E+03  0.39802753711E+03  0.00000000000E+00 0.  1.
         12    1    5    5    0    0  0.22543614684E+02 -0.16667130892E+02 -0.64029637741E+02  0.69898514465E+02  0.00000000000E+00 0. -1.
        -13    1    3    3    0    0  0.25250924360E+02  0.16723254501E+02 -0.74041151364E+02  0.79996053136E+02  0.00000000000E+00 0.  1.
         14    1    3    3    0    0 -0.54555553769E+02  0.10404552230E+03 -0.21483306213E+03  0.24485714966E+03  0.00000000000E+00 0. -1.
          5    1    4    4  501    0  0.12318581970E+03 -0.20306105474E+02 -0.13186018428E+03  0.18164878831E+03  0.47000000000E+01 0. -1.
         -5    1    4    4    0  501  0.26796815411E+02  0.42472179004E+01  0.28711672641E+02  0.39781381599E+02  0.47000000000E+01 0. -1.
          1    1    1    2  502    0  0.89181608322E+01  0.78504237438E+02  0.43971118361E+03  0.44675314647E+03  0.00000000000E+00 0. -1.
          1    1    1    2  503    0 -0.97176622589E+02 -0.11742936556E+03 -0.83606256613E+03  0.84984325988E+03  0.00000000000E+00 0. -1.
<mgrwt>
<rscale>  0 0.10323881E+03</rscale>
<asrwt>0</asrwt>
<pdfrwt beam="1">  1        2 0.78474970E-01 0.79009170E+02</pdfrwt>
<pdfrwt beam="2">  1        2 0.26134942E+00 0.13489891E+03</pdfrwt>
<totfact> 0.11011651E+02</totfact>
</mgrwt>
</event>
<event>
13    1  0.2101801E-008  0.6672534E+02  0.7546771E-02  0.1425615E+00
          2   -1    0    0  503    0  0.00000000000E+00  0.00000000000E+00  0.18517079957E+04  0.18517079957E+04  0.00000000000E+00 0. -1.
          2   -1    0    0  502    0 -0.00000000000E+00 -0.00000000000E+00 -0.37973566597E+04  0.37973566597E+04  0.00000000000E+00 0. -1.
         24    2    1    2    0    0 -0.34130126880E+03 -0.12165309439E+03 -0.51414813729E+03  0.63407925642E+03  0.80138410827E+02 0.  0.
         25    2    1    2    0    0  0.20200138239E+03 -0.27263044171E+02 -0.22040729647E+03  0.32519616367E+03  0.12500134587E+03 0.  0.
         24    2    1    2    0    0  0.64435875928E+02  0.22857556178E+03  0.14016676004E+03  0.29396568743E+03  0.10183484283E+03 0.  0.
        -13    1    5    5    0    0 -0.23709423950E+02  0.92240643718E+02  0.40706565024E+02  0.10357363358E+03  0.00000000000E+00 0.  1.
         14    1    5    5    0    0  0.88145299878E+02  0.13633491806E+03  0.99460195017E+02  0.19039205384E+03  0.00000000000E+00 0. -1.
        -13    1    3    3    0    0 -0.29831982463E+03 -0.12162393199E+03 -0.41012615867E+03  0.52152714659E+03  0.00000000000E+00 0.  1.
         14    1    3    3    0    0 -0.42981444172E+02 -0.29162398567E-01 -0.10402197862E+03  0.11255210984E+03  0.00000000000E+00 0. -1.
          5    1    4    4  501    0  0.19176496360E+03 -0.42890842132E+02 -0.23092160204E+03  0.30324957031E+03  0.47000000000E+01 0.  1.
         -5    1    4    4    0  501  0.10236418789E+02  0.15627797961E+02  0.10514305574E+02  0.21946593367E+02  0.47000000000E+01 0.  1.
          1    1    1    2  502    0  0.50212689128E+02 -0.43867619488E+02 -0.28728446887E+04  0.28736183267E+04  0.00000000000E+00 0. -1.
          1    1    1    2  503    0  0.24651321357E+02 -0.35791803733E+02  0.15215846984E+04  0.15222052212E+04  0.00000000000E+00 0. -1.
<mgrwt>
<rscale>  0 0.53850346E+02</rscale>
<asrwt>0</asrwt>
<pdfrwt beam="1">  1        2 0.27231000E+00 0.43459646E+02</pdfrwt>
<pdfrwt beam="2">  1        2 0.55843480E+00 0.66725342E+02</pdfrwt>
<totfact> 0.19861596E+00</totfact>
</mgrwt>
</event>
<event>
13    1  0.2101801E-008  0.1074886E+03  0.7546771E-02  0.1278652E+00
          2   -1    0    0  503    0  0.00000000000E+00  0.00000000000E+00  0.88258796508E+03  0.88258796508E+03  0.00000000000E+00 0. -1.
          2   -1    0    0  502    0 -0.00000000000E+00 -0.00000000000E+00 -0.17876857864E+04  0.17876857864E+04  0.00000000000E+00 0. -1.
         24    2    1    2    0    0 -0.17103011632E+02  0.18563131599E+02 -0.93396735874E+03  0.93784588378E+03  0.81380413253E+02 0.  0.
         25    2    1    2    0    0  0.10709718708E+03 -0.19052026250E+03  0.95399289528E+02  0.26924616627E+03  0.12499878283E+03 0.  0.
         24    2    1    2    0    0 -0.12203497723E+01 -0.41895155465E+02 -0.92251870101E+02  0.12944113784E+03  0.80547546966E+02 0.  0.
        -11    1    3    3    0    0  0.12165331908E+02 -0.25110913299E+02 -0.48670255399E+03  0.48750172238E+03  0.00000000000E+00 0.  1.
         12    1    3    3    0    0 -0.29268343540E+02  0.43674044897E+02 -0.44726480475E+03  0.45034416140E+03  0.00000000000E+00 0. -1.
        -11    1    5    5    0    0 -0.38042496819E+02 -0.23904922212E+02 -0.68952569055E+02  0.82299050113E+02  0.00000000000E+00 0.  1.
         12    1    5    5    0    0  0.36822147047E+02 -0.17990233252E+02 -0.23299301046E+02  0.47142087723E+02  0.00000000000E+00 0. -1.
          5    1    4    4  501    0  0.98894157767E+01  0.42416560502E+01 -0.19727775930E+02  0.22957947069E+02  0.47000000000E+01 0.  1.
         -5    1    4    4    0  501  0.97207771300E+02 -0.19476191855E+03  0.11512706546E+03  0.24628821921E+03  0.47000000000E+01 0.  1.
          1    1    1    2  502    0 -0.20234284241E+02  0.11374011901E+03 -0.64340937395E+03  0.65369860289E+03  0.00000000000E+00 0. -1.
          1    1    1    2  503    0 -0.68539541431E+02  0.10011216735E+03  0.66913149195E+03  0.68004196070E+03  0.00000000000E+00 0. -1.
<mgrwt>
<rscale>  0 0.10078591E+03</rscale>
<asrwt>0</asrwt>
<pdfrwt beam="1">  1        2 0.12979235E+00 0.94501212E+02</pdfrwt>
<pdfrwt beam="2">  1        2 0.26289496E+00 0.10748858E+03</pdfrwt>
<totfact> 0.62008357E+01</totfact>
</mgrwt>
</event>
<event>
13    1  0.2101801E-008  0.9895688E+02  0.7546771E-02  0.1376803E+00
          2   -1    0    0  502    0  0.00000000000E+00  0.00000000000E+00  0.85949276153E+03  0.85949276153E+03  0.00000000000E+00 0. -1.
          2   -1    0    0  503    0 -0.00000000000E+00 -0.00000000000E+00 -0.32121085134E+04  0.32121085134E+04  0.00000000000E+00 0. -1.
         24    2    1    2    0    0  0.43351861360E+01 -0.84929054214E+02 -0.67624431678E+03  0.68608401695E+03  0.78569486759E+02 0.  0.
         25    2    1    2    0    0  0.10050485014E+03  0.16088162457E+03 -0.96458166714E+02  0.24680535929E+03  0.12499834166E+03 0.  0.
         24    2    1    2    0    0  0.48983193870E+01  0.49967770935E+01 -0.41235322670E+03  0.42105883055E+03  0.84890481815E+02 0.  0.
        -11    1    5    5    0    0  0.10063405497E+01  0.39192522246E+02 -0.32190984420E+03  0.32428847391E+03  0.00000000000E+00 0.  1.
         12    1    5    5    0    0  0.38919788373E+01 -0.34195745152E+02 -0.90443382497E+02  0.96770356635E+02  0.00000000000E+00 0. -1.
        -13    1    3    3    0    0 -0.24169631207E+01 -0.19833754673E+02 -0.45311043242E+03  0.45355075075E+03  0.00000000000E+00 0.  1.
         14    1    3    3    0    0  0.67521492567E+01 -0.65095299541E+02 -0.22313388436E+03  0.23253326620E+03  0.00000000000E+00 0. -1.
          5    1    4    4  501    0  0.10019772960E+03  0.43206325852E+02 -0.41392802949E+02  0.11679822664E+03  0.47000000000E+01 0.  1.
         -5    1    4    4    0  501  0.30712054765E+00  0.11767529872E+03 -0.55065363766E+02  0.13000713265E+03  0.47000000000E+01 0.  1.
          1    1    1    2  502    0 -0.67532208463E+02 -0.72189213797E+02  0.77165399492E+03  0.77796000517E+03  0.00000000000E+00 0. -1.
          1    1    1    2  503    0 -0.42206147205E+02 -0.87601336567E+01 -0.19392140366E+04  0.19396930630E+04  0.00000000000E+00 0. -1.
<mgrwt>
<rscale>  0 0.65311581E+02</rscale>
<asrwt>0</asrwt>
<pdfrwt beam="1">  1        2 0.12639599E+00 0.98956880E+02</pdfrwt>
<pdfrwt beam="2">  1        2 0.47236890E+00 0.43105670E+02</pdfrwt>
<totfact> 0.14279377E+01</totfact>
</mgrwt>
</event>
<event>
13    1  0.2101801E-008  0.1691328E+03  0.7546771E-02  0.1215712E+00
          2   -1    0    0  502    0  0.00000000000E+00  0.00000000000E+00  0.23744011930E+04  0.23744011930E+04  0.00000000000E+00 0. -1.
          2   -1    0    0  503    0 -0.00000000000E+00 -0.00000000000E+00 -0.53965412588E+03  0.53965412588E+03  0.00000000000E+00 0. -1.
         24    2    1    2    0    0  0.52532657839E+02  0.78847979319E+02  0.12571082212E+03  0.17728733393E+03  0.81553074698E+02 0.  0.
         25    2    1    2    0    0 -0.24004135670E+03  0.48533330587E+02  0.63427705820E+03  0.69130952499E+03  0.12500454262E+03 0.  0.
         24    2    1    2    0    0  0.18333889718E+02 -0.76271938330E+02  0.14289298396E+02  0.10948551390E+03  0.75029018490E+02 0.  0.
        -11    1    5    5    0    0  0.29278344330E+01 -0.30208890954E+02  0.43324448841E+02  0.52897610291E+02  0.00000000000E+00 0.  1.
         12    1    5    5    0    0  0.15406055285E+02 -0.46063047376E+02 -0.29035150445E+02  0.56587903605E+02  0.00000000000E+00 0. -1.
        -11    1    3    3    0    0 -0.17726323736E+02  0.42038034701E+02  0.48781005081E+02  0.66790758129E+02  0.00000000000E+00 0.  1.
         12    1    3    3    0    0  0.70258981575E+02  0.36809944618E+02  0.76929817036E+02  0.11049657580E+03  0.00000000000E+00 0. -1.
          5    1    4    4  501    0 -0.19429853328E+03  0.79866632693E+02  0.56266500414E+03  0.60062017610E+03  0.47000000000E+01 0. -1.
         -5    1    4    4    0  501 -0.45742823421E+02 -0.31333302106E+02  0.71612054057E+02  0.90689348887E+02  0.47000000000E+01 0. -1.
          1    1    1    2  502    0  0.73114117531E+02 -0.15354771402E+03  0.14819689466E+04  0.14916951878E+04  0.00000000000E+00 0. -1.
          1    1    1    2  503    0  0.96060691614E+02  0.10243834244E+03 -0.42149905816E+03  0.44427775828E+03  0.00000000000E+00 0. -1.
<mgrwt>
<rscale>  0 0.13824333E+03</rscale>
<asrwt>0</asrwt>
<pdfrwt beam="1">  1        2 0.34917664E+00 0.16913279E+03</pdfrwt>
<pdfrwt beam="2">  1        2 0.79360902E-01 0.11299535E+03</pdfrwt>
<totfact> 0.53680457E+01</totfact>
</mgrwt>
</event>
<event>
13    1  0.2101801E-008  0.8647679E+02  0.7546771E-02  0.1345744E+00
          2   -1    0    0  503    0  0.00000000000E+00  0.00000000000E+00  0.22734573219E+04  0.22734573219E+04  0.00000000000E+00 0. -1.
          2   -1    0    0  502    0 -0.00000000000E+00 -0.00000000000E+00 -0.25523926439E+04  0.25523926439E+04  0.00000000000E+00 0. -1.
         24    2    1    2    0    0  0.57600770283E+02  0.54340154077E+02 -0.10300693292E+03  0.15438712424E+03  0.83392174805E+02 0.  0.
         25    2    1    2    0    0 -0.18296196316E+03 -0.14291565285E+02  0.30467855679E+03  0.37700604424E+03  0.12500082248E+03 0.  0.
         24    2    1    2    0    0 -0.74716814211E+01 -0.22581316028E+02  0.10908361204E+04  0.10938459173E+04  0.77522302044E+02 0.  0.
        -11    1    3    3    0    0  0.54830486756E+02  0.64162769419E+02 -0.11237095246E+03  0.14053638039E+03  0.00000000000E+00 0.  1.
         12    1    3    3    0    0  0.27702835271E+01 -0.98226153418E+01  0.93640195437E+01  0.13850743842E+02  0.00000000000E+00 0. -1.
        -13    1    5    5    0    0 -0.21363655694E+02 -0.36723204364E+02  0.32647439749E+03  0.32922717345E+03  0.00000000000E+00 0.  1.
         14    1    5    5    0    0  0.13891974273E+02  0.14141888336E+02  0.76436172289E+03  0.76461874380E+03  0.00000000000E+00 0. -1.
          5    1    4    4  501    0 -0.15209539431E+03  0.41829367253E+02  0.21474898111E+03  0.26649938053E+03  0.47000000000E+01 0. -1.
         -5    1    4    4    0  501 -0.30866568850E+02 -0.56120932538E+02  0.89929575682E+02  0.11050666371E+03  0.47000000000E+01 0. -1.
          1    1    1    2  502    0  0.74478962090E+02 -0.43768228117E+02 -0.23839860614E+04  0.23855507361E+04  0.00000000000E+00 0. -1.
          1    1    1    2  503    0  0.58353912207E+02  0.26300955353E+02  0.81254299515E+03  0.81506014397E+03  0.00000000000E+00 0. -1.
<mgrwt>
<rscale>  0 0.74398491E+02</rscale>
<asrwt>0</asrwt>
<pdfrwt beam="1">  1        2 0.33433196E+00 0.64007182E+02</pdfrwt>
<pdfrwt beam="2">  1        2 0.37535185E+00 0.86476788E+02</pdfrwt>
<totfact> 0.55729436E+00</totfact>
</mgrwt>
</event>
<event>
13    1  0.2101801E-008  0.3838374E+02  0.7546771E-02  0.1532595E+00
          2   -1    0    0  502    0  0.00000000000E+00  0.00000000000E+00  0.18504071453E+04  0.18504071453E+04  0.00000000000E+00 0. -1.
          2   -1    0    0  503    0 -0.00000000000E+00 -0.00000000000E+00 -0.16721062486E+04  0.16721062486E+04  0.00000000000E+00 0. -1.
         24    2    1    2    0    0  0.10608280897E+02 -0.53207906785E+02 -0.73186194457E+03  0.73836282930E+03  0.81327392823E+02 0.  0.
         25    2    1    2    0    0 -0.84138274837E+02  0.78266908370E+02  0.19775683395E+03  0.26064134918E+03  0.12498475622E+03 0.  0.
         24    2    1    2    0    0  0.64865115167E+02 -0.26868889150E+02 -0.20279131040E+03  0.22617599249E+03  0.71427191145E+02 0.  0.
        -11    1    3    3    0    0 -0.26687717450E+02 -0.47869969646E+02 -0.54443218100E+03  0.54718385207E+03  0.00000000000E+00 0.  1.
         12    1    3    3    0    0  0.37295998347E+02 -0.53379371396E+01 -0.18742976357E+03  0.19117897723E+03  0.00000000000E+00 0. -1.
        -13    1    5    5    0    0 -0.41199275877E+01  0.85408345430E+01 -0.45882433411E+00  0.94936914732E+01  0.00000000000E+00 0.  1.
         14    1    5    5    0    0  0.68985042755E+02 -0.35409723693E+02 -0.20233248607E+03  0.21668230102E+03  0.00000000000E+00 0. -1.
          5    1    4    4  501    0 -0.13485856769E+02 -0.31677450540E+02  0.20430121869E+02  0.40308920664E+02  0.47000000000E+01 0. -1.
         -5    1    4    4    0  501 -0.70652418068E+02  0.10994435891E+03  0.17732671208E+03  0.22033242851E+03  0.47000000000E+01 0. -1.
          1    1    1    2  502    0  0.94221496555E+01  0.37217656195E+02  0.16055819031E+04  0.16060408396E+04  0.00000000000E+00 0. -1.
          1    1    1    2  503    0 -0.75727088181E+00 -0.35407768630E+02 -0.69038458539E+03  0.69129238335E+03  0.00000000000E+00 0. -1.
<mgrwt>
<rscale>  0 0.36869951E+02</rscale>
<asrwt>0</asrwt>
<pdfrwt beam="1">  1        2 0.27211870E+00 0.38383737E+02</pdfrwt>
<pdfrwt beam="2">  1        2 0.24589798E+00 0.35415866E+02</pdfrwt>
<totfact> 0.26924265E+01</totfact>
</mgrwt>
</event>
<event>
13    1  0.2101801E-008  0.7179058E+02  0.7546771E-02  0.1359193E+00
          2   -1    0    0  502    0  0.00000000000E+00  0.00000000000E+00  0.33698765796E+04  0.33698765796E+04  0.00000000000E+00 0. -1.
          2   -1    0    0  503    0 -0.00000000000E+00 -0.00000000000E+00 -0.18609959657E+04  0.18609959657E+04  0.00000000000E+00 0. -1.
         24    2    1    2    0    0  0.41888993675E+02  0.76243482777E+03  0.10787000246E+03  0.77681583168E+03  0.93516546863E+02 0.  0.
         25    2    1    2    0    0 -0.25286066420E+03 -0.60975048332E+03  0.15121701954E+04  0.16546957039E+04  0.12500002115E+03 0.  0.
         24    2    1    2    0    0  0.19393158480E+03 -0.22411401134E+02 -0.14398157350E+03  0.25578519143E+03  0.81139633763E+02 0.  0.
        -11    1    5    5    0    0  0.10821795613E+03  0.79271155871E+01 -0.35344662999E+02  0.11411928142E+03  0.00000000000E+00 0.  1.
         12    1    5    5    0    0  0.85713628671E+02 -0.30338516721E+02 -0.10863691050E+03  0.14166591001E+03  0.00000000000E+00 0. -1.
        -13    1    3    3    0    0  0.69561674898E+02  0.42610920194E+03  0.66031491351E+02  0.43677000406E+03  0.00000000000E+00 0.  1.
         14    1    3    3    0    0 -0.27672681224E+02  0.33632562583E+03  0.41838511108E+02  0.34004582763E+03  0.00000000000E+00 0. -1.
          5    1    4    4  501    0 -0.16549033550E+03 -0.49134634726E+03  0.12629558612E+04  0.13652427921E+04  0.47000000000E+01 0. -1.
         -5    1    4    4    0  501 -0.87370328700E+02 -0.11840413606E+03  0.24921433422E+03  0.28945291181E+03  0.47000000000E+01 0. -1.
          1    1    1    2  502    0 -0.15923637036E+02 -0.69915287913E+02  0.12862576956E+04  0.12882548541E+04  0.00000000000E+00 0. -1.
          1    1    1    2  503    0  0.32963722763E+02 -0.60357655407E+02 -0.12534357061E+04  0.12553209641E+04  0.00000000000E+00 0. -1.
<mgrwt>
<rscale>  0 0.70265326E+02</rscale>
<asrwt>0</asrwt>
<pdfrwt beam="1">  1        2 0.49557008E+00 0.71790581E+02</pdfrwt>
<pdfrwt beam="2">  1        2 0.27367588E+00 0.68772477E+02</pdfrwt>
<totfact> 0.33131963E+00</totfact>
</mgrwt>
</event>
<event>
13    1  0.2101801E-008  0.6440847E+02  0.7546771E-02  0.1381535E+00
          2   -1    0    0  502    0  0.00000000000E+00  0.00000000000E+00  0.45580035315E+04  0.45580035315E+04  0.00000000000E+00 0. -1.
          4   -1    0    0  503    0 -0.00000000000E+00 -0.00000000000E+00 -0.19539751879E+04  0.19539751879E+04  0.00000000000E+00 0. -1.
         24    2    1    2    0    0  0.10393054331E+03 -0.32054039188E+03  0.11688050768E+03  0.36626536778E+03  0.83316060289E+02 0.  0.
         25    2    1    2    0    0 -0.41359135840E+03 -0.15631935595E+03 -0.92144932921E+02  0.46862692361E+03  0.12500780811E+03 0.  0.
         24    2    1    2    0    0  0.40235640474E+03  0.50611435325E+03  0.11553825554E+03  0.66532158645E+03  0.10611931915E+03 0.  0.
        -13    1    5    5    0    0  0.59608922681E+02  0.79796695098E+02  0.58080076918E+02  0.11529974652E+03  0.00000000000E+00 0.  1.
         14    1    5    5    0    0  0.34274748206E+03  0.42631765815E+03  0.57458178622E+02  0.55002183993E+03  0.00000000000E+00 0. -1.
        -13    1    3    3    0    0  0.11008068770E+03 -0.21789501779E+03  0.87347075429E+02  0.25927882321E+03  0.00000000000E+00 0.  1.
         14    1    3    3    0    0 -0.61501443856E+01 -0.10264537409E+03  0.29533432248E+02  0.10698654457E+03  0.00000000000E+00 0. -1.
          5    1    4    4  501    0 -0.20431995853E+03 -0.14308281313E+03 -0.42295201838E+02  0.25304211303E+03  0.47000000000E+01 0.  1.
         -5    1    4    4    0  501 -0.20927139986E+03 -0.13236542820E+02 -0.49849731083E+02  0.21558481058E+03  0.47000000000E+01 0.  1.
          1    1    1    2  502    0 -0.59339900038E+02  0.25034389635E+02  0.37366853297E+04  0.37372403184E+04  0.00000000000E+00 0. -1.
          3    1    1    2  503    0 -0.33355689617E+02 -0.54288995063E+02 -0.12729308164E+04  0.12745245232E+04  0.00000000000E+00 0. -1.
<mgrwt>
<rscale>  0 0.64061964E+02</rscale>
<asrwt>0</asrwt>
<pdfrwt beam="1">  1        2 0.67029464E+00 0.64408471E+02</pdfrwt>
<pdfrwt beam="2">  1        4 0.28734929E+00 0.63717321E+02</pdfrwt>
<totfact> 0.79735421E-03</totfact>
</mgrwt>
</event>
<event>
13    1  0.2101801E-008  0.9201107E+02  0.7546771E-02  0.1362500E+00
          2   -1    0    0  503    0  0.00000000000E+00  0.00000000000E+00  0.83071148996E+03  0.83071148996E+03  0.00000000000E+00 0. -1.
          2   -1    0    0  502    0 -0.00000000000E+00 -0.00000000000E+00 -0.75039461222E+03  0.75039461222E+03  0.00000000000E+00 0. -1.
         24    2    1    2    0    0 -0.38041301331E+02 -0.16413747668E+02 -0.19500150961E+03  0.21674630369E+03  0.85069499199E+02 0.  0.
         25    2    1    2    0    0  0.81815589071E+01 -0.72386523988E+02  0.45756075218E+03  0.47988892399E+03  0.12499916268E+03 0.  0.
         24    2    1    2    0    0 -0.17294353449E+02  0.24076158741E+02  0.69944348199E+02  0.11011152236E+03  0.79709343428E+02 0.  0.
        -11    1    3    3    0    0 -0.39258741567E+02 -0.42823055642E+02 -0.80755111474E+02  0.99480907279E+02  0.00000000000E+00 0.  1.
         12    1    3    3    0    0  0.12174402363E+01  0.26409307974E+02 -0.11424639814E+03  0.11726539641E+03  0.00000000000E+00 0. -1.
        -11    1    5    5    0    0  0.22336376976E+02  0.33393883540E+02  0.17761603334E+02  0.43926526692E+02  0.00000000000E+00 0.  1.
         12    1    5    5    0    0 -0.39630730424E+02 -0.93177247992E+01  0.52182744865E+02  0.66184995664E+02  0.00000000000E+00 0. -1.
          5    1    4    4  501    0  0.62117325769E+02 -0.54341113479E+02  0.32908014958E+03  0.33930421987E+03  0.47000000000E+01 0.  1.
         -5    1    4    4    0  501 -0.53935766862E+02 -0.18045410508E+02  0.12848060260E+03  0.14058470412E+03  0.47000000000E+01 0.  1.
          1    1    1    2  502    0  0.96375091217E+02  0.82076084053E+02 -0.50273785446E+03  0.51843031556E+03  0.00000000000E+00 0. -1.
          1    1    1    2  503    0 -0.49220995344E+02 -0.17351971139E+02  0.25055114145E+03  0.25592903658E+03  0.00000000000E+00 0. -1.
<mgrwt>
<rscale>  0 0.69296890E+02</rscale>
<asrwt>0</asrwt>
<pdfrwt beam="1">  1        2 0.12216345E+00 0.52190011E+02</pdfrwt>
<pdfrwt beam="2">  1        2 0.11035215E+00 0.92011074E+02</pdfrwt>
<totfact> 0.24983639E+02</totfact>
</mgrwt>
</event>
<event>
13    1  0.2101801E-008  0.2726671E+03  0.7546771E-02  0.1308980E+00
          2   -1    0    0  503    0  0.00000000000E+00  0.00000000000E+00  0.10577270426E+04  0.10577270426E+04  0.00000000000E+00 0. -1.
          2   -1    0    0  502    0 -0.00000000000E+00 -0.00000000000E+00 -0.35052019720E+04  0.35052019720E+04  0.00000000000E+00 0. -1.
         24    2    1    2    0    0 -0.50224949378E+02 -0.44057228143E+02 -0.10578057228E+04  0.10629672914E+04  0.80516646812E+02 0.  0.
         25    2    1    2    0    0 -0.18453767456E+03 -0.13941793803E+03  0.35447743290E+03  0.44132883229E+03  0.12500149198E+03 0.  0.
         24    2    1    2    0    0 -0.21098764134E+02  0.38454306198E+01 -0.28940749840E+03  0.30094580068E+03  0.79697739180E+02 0.  0.
        -11    1    3    3    0    0  0.72853065064E+01  0.55326576472E+01 -0.16258216923E+02  0.18655176468E+02  0.00000000000E+00 0.  1.
         12    1    3    3    0    0 -0.57510255884E+02 -0.49589885790E+02 -0.10415475059E+04  0.10443121149E+04  0.00000000000E+00 0. -1.
        -11    1    5    5    0    0 -0.39457702628E+02  0.27238007244E+02 -0.12518241832E+03  0.13405020400E+03  0.00000000000E+00 0.  1.
         12    1    5    5    0    0  0.18358938494E+02 -0.23392576625E+02 -0.16422508008E+03  0.16689559668E+03  0.00000000000E+00 0. -1.
          5    1    4    4  501    0 -0.42340739767E+02  0.10093840546E+02  0.12623195291E+03  0.13360845706E+03  0.47000000000E+01 0.  1.
         -5    1    4    4    0  501 -0.14219693479E+03 -0.14951177858E+03  0.22824547998E+03  0.30772037523E+03  0.47000000000E+01 0.  1.
          1    1    1    2  502    0  0.20977268889E+02 -0.18681173227E+02 -0.20698494516E+04  0.20700400441E+04  0.00000000000E+00 0. -1.
          1    1    1    2  503    0  0.23488411918E+03  0.19831090878E+03  0.61511031047E+03  0.68764704612E+03  0.00000000000E+00 0. -1.
<mgrwt>
<rscale>  0 0.87516518E+02</rscale>
<asrwt>0</asrwt>
<pdfrwt beam="1">  1        2 0.15554810E+00 0.27266710E+03</pdfrwt>
<pdfrwt beam="2">  1        2 0.51547087E+00 0.28089714E+02</pdfrwt>
<totfact> 0.78254594E+00</totfact>
</mgrwt>
</event>
<event>
13    1  0.2101801E-008  0.7478125E+02  0.7546771E-02  0.1413202E+00
          2   -1    0    0  503    0  0.00000000000E+00  0.00000000000E+00  0.25762047445E+04  0.25762047445E+04  0.00000000000E+00 0. -1.
         -1   -1    0    0    0  501 -0.00000000000E+00 -0.00000000000E+00 -0.41084488962E+03  0.41084488962E+03  0.00000000000E+00 0.  1.
         24    2    1    2    0    0 -0.12445892971E+03 -0.22274627739E+03  0.77942084184E+00  0.26743638287E+03  0.80097953197E+02 0.  0.
         25    2    1    2    0    0  0.39662704584E+03  0.29790294476E+03  0.74337203314E+03  0.90237809321E+03  0.12500026185E+03 0.  0.
         24    2    1    2    0    0 -0.23739211481E+03  0.54404164232E+01  0.21733443807E+03  0.33189528411E+03  0.80843103230E+02 0.  0.
        -11    1    5    5    0    0 -0.17110338536E+03  0.40503692736E+02  0.15407206873E+03  0.23378434501E+03  0.00000000000E+00 0.  1.
         12    1    5    5    0    0 -0.66288729453E+02 -0.35063276313E+02  0.63262369337E+02  0.98110939106E+02  0.00000000000E+00 0. -1.
        -13    1    3    3    0    0 -0.82420124126E+02 -0.10816747399E+03 -0.34679651726E+02  0.14034228705E+03  0.00000000000E+00 0.  1.
         14    1    3    3    0    0 -0.42038805587E+02 -0.11457880340E+03  0.35459072568E+02  0.12709409582E+03  0.00000000000E+00 0. -1.
          5    1    4    4  502    0 -0.56651511082E+01  0.15014921223E+02  0.46632142139E+02  0.49539766621E+02  0.47000000000E+01 0. -1.
         -5    1    4    4    0  502  0.40229219695E+03  0.28288802354E+03  0.69673989100E+03  0.85283832659E+03  0.47000000000E+01 0. -1.
          1    1    1    2  503    0 -0.42212477323E+02 -0.62031965762E+01  0.13343121055E+04  0.13349940703E+04  0.00000000000E+00 0. -1.
         -2    1    1    2    0  501  0.74364760088E+01 -0.74393887213E+02 -0.13043814262E+03  0.15034580367E+03  0.00000000000E+00 0.  1.
<mgrwt>
<rscale>  0 0.56485430E+02</rscale>
<asrwt>0</asrwt>
<pdfrwt beam="1">  1        2 0.37885363E+00 0.42665828E+02</pdfrwt>
<pdfrwt beam="2">  1       -1 0.60418368E-01 0.74781246E+02</pdfrwt>
<totfact> 0.18209816E+01</totfact>
</mgrwt>
</event>
<event>
13    1  0.2101801E-008  0.1622534E+03  0.7546771E-02  0.1340584E+00
          2   -1    0    0  503    0  0.00000000000E+00  0.00000000000E+00  0.22552702263E+04  0.22552702263E+04  0.00000000000E+00 0. -1.
          2   -1    0    0  502    0 -0.00000000000E+00 -0.00000000000E+00 -0.17161095497E+04  0.17161095497E+04  0.00000000000E+00 0. -1.
         24    2    1    2    0    0 -0.63597606757E+02  0.48271823885E+02 -0.91460974312E+02  0.14859329623E+03  0.85673994272E+02 0.  0.
         25    2    1    2    0    0 -0.41926719697E+00 -0.20247517076E+03  0.10679732512E+04  0.10941608286E+04  0.12499873176E+03 0.  0.
         24    2    1    2    0    0 -0.66867154586E+02 -0.50714579643E+02  0.85244990172E+02  0.15816835750E+03  0.10347625821E+03 0.  0.
        -11    1    3    3    0    0 -0.13782169171E+02  0.63062146054E+02 -0.58057448494E+02  0.86818487534E+02  0.00000000000E+00 0.  1.
         12    1    3    3    0    0 -0.49815437586E+02 -0.14790322169E+02 -0.33403525818E+02  0.61774808691E+02  0.00000000000E+00 0. -1.
        -13    1    5    5    0    0  0.25452987103E+02 -0.83112893522E+01  0.20430328161E+01  0.26853418149E+02  0.00000000000E+00 0.  1.
         14    1    5    5    0    0 -0.92320141690E+02 -0.42403290291E+02  0.83201957356E+02  0.13131493935E+03  0.00000000000E+00 0. -1.
          5    1    4    4  501    0  0.15543054665E+02  0.13560627917E+02  0.10535766892E+03  0.10746071644E+03  0.47000000000E+01 0.  1.
         -5    1    4    4    0  501 -0.15962321862E+02 -0.21603579867E+03  0.96261558229E+03  0.98670011213E+03  0.47000000000E+01 0.  1.
          1    1    1    2  502    0  0.11976326195E+03  0.17103027584E+03 -0.15391656084E+04  0.15532628124E+04  0.00000000000E+00 0. -1.
          1    1    1    2  503    0  0.11120766592E+02  0.33887650677E+02  0.10165690180E+04  0.10171944812E+04  0.00000000000E+00 0. -1.
<mgrwt>
<rscale>  0 0.76071593E+02</rscale>
<asrwt>0</asrwt>
<pdfrwt beam="1">  1        2 0.33165739E+00 0.35665730E+02</pdfrwt>
<pdfrwt beam="2">  1        2 0.25236905E+00 0.16225344E+03</pdfrwt>
<totfact> 0.14704597E+01</totfact>
</mgrwt>
</event>
<event>
13    1  0.2101801E-008  0.5835705E+02  0.7546771E-02  0.1419716E+00
          2   -1    0    0  503    0  0.00000000000E+00  0.00000000000E+00  0.28428108282E+04  0.28428108282E+04  0.00000000000E+00 0. -1.
         -3   -1    0    0    0  501 -0.00000000000E+00 -0.00000000000E+00 -0.21479167988E+03  0.21479167988E+03  0.00000000000E+00 0.  1.
         24    2    1    2    0    0 -0.32783264493E+02  0.10440101666E+03  0.15946088095E+03  0.21137277449E+03  0.85301597480E+02 0.  0.
         25    2    1    2    0    0  0.16967721021E+02 -0.11546779167E+03  0.71882766836E+03  0.73889042965E+03  0.12500054305E+03 0.  0.
         24    2    1    2    0    0  0.46566034913E+02  0.18424283840E+02  0.34591488843E+02  0.11444308007E+03  0.96916446657E+02 0.  0.
        -13    1    3    3    0    0 -0.31182387075E+02  0.16604591101E+02  0.78827554337E+01  0.36196568104E+02  0.00000000000E+00 0.  1.
         14    1    3    3    0    0 -0.16008774187E+01  0.87796425563E+02  0.15157812551E+03  0.17517620639E+03  0.00000000000E+00 0. -1.
        -13    1    5    5    0    0  0.49476011716E+02 -0.22182731001E+01 -0.21956714736E+02  0.54174660062E+02  0.00000000000E+00 0.  1.
         14    1    5    5    0    0 -0.29099768027E+01  0.20642556940E+02  0.56548203579E+02  0.60268420006E+02  0.00000000000E+00 0. -1.
          5    1    4    4  502    0  0.36349261235E+02 -0.99535170408E+02  0.69780895085E+03  0.70582429884E+03  0.47000000000E+01 0. -1.
         -5    1    4    4    0  502 -0.19381540214E+02 -0.15932621262E+02  0.21018717506E+02  0.33066130813E+02  0.47000000000E+01 0. -1.
          1    1    1    2  503    0  0.79812249664E+01 -0.51372834943E+02  0.18474476948E+04  0.18481790641E+04  0.00000000000E+00 0. -1.
         -4    1    1    2    0  501 -0.38731716407E+02  0.44015326110E+02 -0.13230858457E+03  0.14471715979E+03  0.00000000000E+00 0.  1.
<mgrwt>
<rscale>  0 0.55081136E+02</rscale>
<asrwt>0</asrwt>
<pdfrwt beam="1">  1        2 0.41806039E+00 0.51989115E+02</pdfrwt>
<pdfrwt beam="2">  1       -3 0.31587013E-01 0.58357052E+02</pdfrwt>
<totfact> 0.21354462E+01</totfact>
</mgrwt>
</event>
<event>
13    1  0.2101801E-008  0.1570181E+03  0.7546771E-02  0.1216425E+00
          2   -1    0    0  502    0  0.00000000000E+00  0.00000000000E+00  0.13138275371E+04  0.13138275371E+04  0.00000000000E+00 0. -1.
          2   -1    0    0  503    0 -0.00000000000E+00 -0.00000000000E+00 -0.30104134412E+04  0.30104134412E+04  0.00000000000E+00 0. -1.
         24    2    1    2    0    0  0.89742544248E+02  0.34552971831E+02 -0.15365434470E+04  0.15416391823E+04  0.80236972661E+02 0.  0.
         25    2    1    2    0    0  0.12262185080E+03 -0.57121632418E+02 -0.34550985808E+02  0.18739233105E+03  0.12499246350E+03 0.  0.
         24    2    1    2    0    0 -0.76998070370E+02  0.22028793255E+03  0.20991790281E+03  0.32394228981E+03  0.80109956526E+02 0.  0.
        -11    1    3    3    0    0  0.26344139406E+02  0.48299041069E+02 -0.93268211372E+03  0.93430334277E+03  0.00000000000E+00 0.  1.
         12    1    3    3    0    0  0.63398404842E+02 -0.13746069238E+02 -0.60386133332E+03  0.60733583958E+03  0.00000000000E+00 0. -1.
        -13    1    5    5    0    0 -0.20202835967E+02  0.10411963080E+02  0.47148170453E+02  0.52340362373E+02  0.00000000000E+00 0.  1.
         14    1    5    5    0    0 -0.56795234403E+02  0.20987596947E+03  0.16276973236E+03  0.27160192743E+03  0.00000000000E+00 0. -1.
          5    1    4    4  501    0  0.11030027563E+02 -0.70260557878E+02 -0.19748101387E+02  0.73961375121E+02  0.47000000000E+01 0. -1.
         -5    1    4    4    0  501  0.11159182324E+03  0.13138925460E+02 -0.14802884421E+02  0.11343095593E+03  0.47000000000E+01 0. -1.
          1    1    1    2  502    0 -0.11935882061E+03  0.18609753793E+02  0.95507203949E+03  0.96268138634E+03  0.00000000000E+00 0. -1.
          1    1    1    2  503    0 -0.16007504068E+02 -0.21632902576E+03 -0.12904814136E+04  0.13085857887E+04  0.00000000000E+00 0. -1.
<mgrwt>
<rscale>  0 0.13772407E+03</rscale>
<asrwt>0</asrwt>
<pdfrwt beam="1">  1        2 0.19320993E+00 0.12080087E+03</pdfrwt>
<pdfrwt beam="2">  1        2 0.44270786E+00 0.15701807E+03</pdfrwt>
<totfact> 0.81593162E+00</totfact>
</mgrwt>
</event>
<event>
13    1  0.2101801E-008  0.4598110E+02  0.7546771E-02  0.1469267E+00
         -3   -1    0    0    0  501 -0.00000000000E+00  0.00000000000E+00  0.97252156358E+03  0.97252156358E+03  0.00000000000E+00 0.  1.
          2   -1    0    0  503    0  0.00000000000E+00 -0.00000000000E+00 -0.18546055920E+04  0.18546055920E+04  0.00000000000E+00 0. -1.
         24    2    1    2    0    0 -0.25318054657E+02 -0.69168532911E+01  0.46189979900E+03  0.46995060733E+03  0.82542729915E+02 0.  0.
         25    2    1    2    0    0  0.84629575480E-01  0.14243067271E+03 -0.60088787882E+03  0.63006177229E+03  0.12500036118E+03 0.  0.
         24    2    1    2    0    0  0.18942797070E+02 -0.62458220931E+02  0.68563158130E+02  0.12483248916E+03  0.81378036185E+02 0.  0.
        -13    1    5    5    0    0  0.27328280011E+01  0.80576710489E+01 -0.13166642450E+02  0.15676571214E+02  0.00000000000E+00 0.  1.
         14    1    5    5    0    0  0.16209969069E+02 -0.70515891979E+02  0.81729800580E+02  0.10915591794E+03  0.00000000000E+00 0. -1.
        -13    1    3    3    0    0  0.34990707753E+01 -0.41433379083E+02  0.21253345470E+03  0.21656278019E+03  0.00000000000E+00 0.  1.
         14    1    3    3    0    0 -0.28817125433E+02  0.34516525792E+02  0.24936634430E+03  0.25338782713E+03  0.00000000000E+00 0. -1.
          5    1    4    4  502    0 -0.84182721453E+01 -0.92144552626E+01 -0.21380746505E+03  0.21422300437E+03  0.47000000000E+01 0.  1.
         -5    1    4    4    0  502  0.85029017208E+01  0.15164512798E+03 -0.38708041377E+03  0.41583876792E+03  0.47000000000E+01 0.  1.
          1    1    1    2  503    0  0.30540533319E+02 -0.34360476173E+02 -0.12052121976E+04  0.12060886400E+04  0.00000000000E+00 0. -1.
         -4    1    1    2    0  501 -0.24249905307E+02 -0.38695122318E+02  0.39355309085E+03  0.39619364674E+03  0.00000000000E+00 0.  1.
<mgrwt>
<rscale>  0 0.45823206E+02</rscale>
<asrwt>0</asrwt>
<pdfrwt beam="2">  1        2 0.27273612E+00 0.45981098E+02</pdfrwt>
<pdfrwt beam="1">  1       -3 0.14301788E+00 0.45665856E+02</pdfrwt>
<totfact> 0.27888393E+00</totfact>
</mgrwt>
</event>
<event>
13    1  0.2101801E-008  0.9232314E+02  0.7546771E-02  0.1304224E+00
          2   -1    0    0  502    0  0.00000000000E+00  0.00000000000E+00  0.96237764490E+03  0.96237764490E+03  0.00000000000E+00 0. -1.
          2   -1    0    0  503    0 -0.00000000000E+00 -0.00000000000E+00 -0.39456518255E+03  0.39456518255E+03  0.00000000000E+00 0. -1.
         24    2    1    2    0    0  0.13759990613E+02  0.37254585158E+02  0.68470590246E+02  0.11181146025E+03  0.78970497393E+02 0.  0.
         25    2    1    2    0    0 -0.18944905804E+03 -0.50781271226E+01  0.17358874592E+03  0.28578535182E+03  0.12499392641E+03 0.  0.
         24    2    1    2    0    0  0.26491946419E+02  0.27235627288E+02  0.10738416969E+03  0.13516788642E+03  0.72769464751E+02 0.  0.
        -13    1    5    5    0    0 -0.21283478683E+02  0.16592810116E+02  0.65152384482E+02  0.70520500680E+02  0.00000000000E+00 0.  1.
         14    1    5    5    0    0  0.47775425102E+02  0.10642817173E+02  0.42231785206E+02  0.64647385738E+02  0.00000000000E+00 0. -1.
        -13    1    3    3    0    0 -0.19086140107E+02  0.46215627271E+02  0.23080736669E+02  0.55071638376E+02  0.00000000000E+00 0.  1.
         14    1    3    3    0    0  0.32846130720E+02 -0.89610421135E+01  0.45389853577E+02  0.56739821878E+02  0.00000000000E+00 0. -1.
          5    1    4    4  501    0  0.14705444457E+02  0.53937911628E+01 -0.17225039552E+01  0.16443846864E+02  0.47000000000E+01 0.  1.
         -5    1    4    4    0  501 -0.20415450250E+03 -0.10471918285E+02  0.17531124987E+03  0.26934150496E+03  0.47000000000E+01 0.  1.
          1    1    1    2  502    0  0.62930234801E+02 -0.53707146824E+02  0.51171366340E+03  0.51835851048E+03  0.00000000000E+00 0. -1.
          1    1    1    2  503    0  0.86266886205E+02 -0.57049384999E+01 -0.29334470691E+03  0.30581961848E+03  0.00000000000E+00 0. -1.
<mgrwt>
<rscale>  0 0.89435557E+02</rscale>
<asrwt>0</asrwt>
<pdfrwt beam="1">  1        2 0.14152612E+00 0.92323143E+02</pdfrwt>
<pdfrwt beam="2">  1        2 0.58024292E-01 0.86638287E+02</pdfrwt>
<totfact> 0.41135980E+02</totfact>
</mgrwt>
</event>
<event>
13    1  0.2101801E-008  0.9227321E+02  0.7546771E-02  0.1356028E+00
          2   -1    0    0  503    0  0.00000000000E+00  0.00000000000E+00  0.16214680737E+04  0.16214680737E+04  0.00000000000E+00 0. -1.
          2   -1    0    0  502    0 -0.00000000000E+00 -0.00000000000E+00 -0.36794369492E+04  0.36794369492E+04  0.00000000000E+00 0. -1.
         24    2    1    2    0    0  0.66403407322E+02  0.48917221965E+02 -0.37906462531E+03  0.39577042614E+03  0.78370485071E+02 0.  0.
         25    2    1    2    0    0 -0.97438397636E+02  0.60015225791E+02  0.59358127874E+03  0.61730116882E+03  0.12500371949E+03 0.  0.
         24    2    1    2    0    0 -0.13061302340E+02  0.31086793141E+02 -0.44341657535E+02  0.96638248816E+02  0.78966969137E+02 0.  0.
        -13    1    5    5    0    0 -0.27560528962E+01  0.46052545428E+02 -0.57852116962E+02  0.73995271504E+02  0.00000000000E+00 0.  1.
         14    1    5    5    0    0 -0.10305249444E+02 -0.14965752287E+02  0.13510459427E+02  0.22642977312E+02  0.00000000000E+00 0. -1.
        -13    1    3    3    0    0  0.34988174665E+02  0.32751584714E+02 -0.33892542569E+03  0.34229706812E+03  0.00000000000E+00 0.  1.
         14    1    3    3    0    0  0.31415232657E+02  0.16165637251E+02 -0.40139199630E+02  0.53473358016E+02  0.00000000000E+00 0. -1.
          5    1    4    4  501    0 -0.10971027178E+03  0.86374788120E+02  0.47531568605E+03  0.49542309107E+03  0.47000000000E+01 0. -1.
         -5    1    4    4    0  501  0.12271874140E+02 -0.26359562329E+02  0.11826559269E+03  0.12187807775E+03  0.47000000000E+01 0. -1.
          1    1    1    2  502    0  0.32707285656E+02 -0.86258194526E+02 -0.32082367862E+04  0.32095628237E+04  0.00000000000E+00 0. -1.
          1    1    1    2  503    0  0.11389006998E+02 -0.53761046372E+02  0.98009291484E+03  0.98163235547E+03  0.00000000000E+00 0. -1.
<mgrwt>
<rscale>  0 0.71209528E+02</rscale>
<asrwt>0</asrwt>
<pdfrwt beam="1">  1        2 0.23845119E+00 0.54954159E+02</pdfrwt>
<pdfrwt beam="2">  1        2 0.54109367E+00 0.92273214E+02</pdfrwt>
<totfact> 0.27562759E+00</totfact>
</mgrwt>
</event>
<event>
13    1  0.2101801E-008  0.1782424E+03  0.7546771E-02  0.1245121E+00
         -1   -1    0    0    0  501  0.00000000000E+00  0.00000000000E+00  0.49419549241E+03  0.49419549241E+03  0.00000000000E+00 0.  1.
         -1   -1    0    0    0  502 -0.00000000000E+00 -0.00000000000E+00 -0.16644350646E+04  0.16644350646E+04  0.00000000000E+00 0.  1.
         24    2    1    2    0    0 -0.45576512849E+02 -0.14853722280E+03 -0.24734310856E+03  0.30294652496E+03  0.80358313517E+02 0.  0.
         25    2    1    2    0    0  0.20672374905E+03 -0.86789796696E+02  0.21067056035E+01  0.25670229531E+03  0.12499781190E+03 0.  0.
         24    2    1    2    0    0 -0.14313334063E+02 -0.70519561167E+02 -0.18171073986E+03  0.21185172805E+03  0.81758679405E+02 0.  0.
        -11    1    3    3    0    0 -0.58907650353E+02 -0.14689930680E+03 -0.24041171689E+03  0.28783208860E+03  0.00000000000E+00 0.  1.
         12    1    3    3    0    0  0.13331137504E+02 -0.16379159950E+01 -0.69313916708E+01  0.15114436359E+02  0.00000000000E+00 0. -1.
        -13    1    5    5    0    0  0.30704563451E+02 -0.23804833134E+02 -0.10154444982E+03  0.10872311432E+03  0.00000000000E+00 0.  1.
         14    1    5    5    0    0 -0.45017897514E+02 -0.46714728033E+02 -0.80166290036E+02  0.10312861373E+03  0.00000000000E+00 0. -1.
          5    1    4    4  503    0  0.17654913398E+03 -0.80372333911E+02  0.49226298449E+02  0.20018648113E+03  0.47000000000E+01 0. -1.
         -5    1    4    4    0  503  0.30174615069E+02 -0.64174627843E+01 -0.47119592845E+02  0.56515814185E+02  0.47000000000E+01 0. -1.
         -2    1    1    2    0  502 -0.21891484592E+03  0.27313423325E+03 -0.10309640082E+04  0.10887666441E+04  0.00000000000E+00 0.  1.
         -2    1    1    2    0  501  0.72080943779E+02  0.32712347409E+02  0.28767157877E+03  0.29836336464E+03  0.00000000000E+00 0.  1.
<mgrwt>
<rscale>  0 0.11878153E+03</rscale>
<asrwt>0</asrwt>
<pdfrwt beam="1">  1       -1 0.72675809E-01 0.79156555E+02</pdfrwt>
<pdfrwt beam="2">  1       -1 0.24476986E+00 0.17824238E+03</pdfrwt>
<totfact> 0.15667666E+00</totfact>
</mgrwt>
</event>
<event>
13    1  0.2101801E-008  0.1957493E+03  0.7546771E-02  0.1189309E+00
          2   -1    0    0  502    0  0.00000000000E+00  0.00000000000E+00  0.19498481405E+04  0.19498481405E+04  0.00000000000E+00 0. -1.
          2   -1    0    0  503    0 -0.00000000000E+00 -0.00000000000E+00 -0.79428062367E+03  0.79428062367E+03  0.00000000000E+00 0. -1.
         24    2    1    2    0    0 -0.30445638558E+01 -0.12326495184E+03  0.45476040507E+03  0.47772754860E+03  0.78823010268E+02 0.  0.
         25    2    1    2    0    0  0.33012601429E+03  0.16033348562E+03  0.15429704361E+03  0.41726664445E+03  0.12495544402E+03 0.  0.
         24    2    1    2    0    0 -0.13247863012E+03  0.19510021176E+03  0.82055387195E+02  0.26798909760E+03  0.97315927774E+02 0.  0.
        -11    1    5    5    0    0 -0.94990123323E+02  0.62187939404E+02  0.59096786304E+02  0.12799567761E+03  0.00000000000E+00 0.  1.
         12    1    5    5    0    0 -0.37488506794E+02  0.13291227236E+03  0.22958600892E+02  0.13999341999E+03  0.00000000000E+00 0. -1.
        -13    1    3    3    0    0  0.31577655834E+02 -0.97236822158E+02  0.34117174709E+03  0.35616051008E+03  0.00000000000E+00 0.  1.
         14    1    3    3    0    0 -0.34622219689E+02 -0.26028129684E+02  0.11358865798E+03  0.12156703851E+03  0.00000000000E+00 0. -1.
          5    1    4    4  501    0  0.12213770809E+03  0.23346667032E+01  0.78391425310E+02  0.14522525940E+03  0.47000000000E+01 0.  1.
         -5    1    4    4    0  501  0.20798830620E+03  0.15799881891E+03  0.75905618296E+02  0.27204138505E+03  0.47000000000E+01 0.  1.
          1    1    1    2  502    0 -0.96077601157E+02 -0.14751726775E+03  0.10075079153E+04  0.10227729216E+04  0.00000000000E+00 0. -1.
          1    1    1    2  503    0 -0.98525219160E+02 -0.84651477786E+02 -0.54305323431E+03  0.55837255197E+03  0.00000000000E+00 0. -1.
<mgrwt>
<rscale>  0 0.15945892E+03</rscale>
<asrwt>0</asrwt>
<pdfrwt beam="1">  1        2 0.28674237E+00 0.19574933E+03</pdfrwt>
<pdfrwt beam="2">  1        2 0.11680597E+00 0.12989646E+03</pdfrwt>
<totfact> 0.54964153E+01</totfact>
</mgrwt>
</event>
<event>
13    1  0.2101801E-008  0.1143761E+03  0.7546771E-02  0.1295737E+00
          2   -1    0    0  502    0  0.00000000000E+00  0.00000000000E+00  0.21599777363E+04  0.21599777363E+04  0.00000000000E+00 0. -1.
          2   -1    0    0  503    0 -0.00000000000E+00 -0.00000000000E+00 -0.36818329657E+04  0.36818329657E+04  0.00000000000E+00 0. -1.
         24    2    1    2    0    0 -0.27198931794E+03  0.20780968604E+03  0.32014214018E+03  0.47546436222E+03  0.80076932602E+02 0.  0.
         25    2    1    2    0    0  0.29010833784E+03 -0.13145182873E+03  0.13814350097E+02  0.34242628473E+03  0.12498997256E+03 0.  0.
         24    2    1    2    0    0 -0.87002599140E+02 -0.14928260138E+03  0.25149466019E+03  0.31478579513E+03  0.77367857520E+02 0.  0.
        -11    1    5    5    0    0 -0.98633896721E+02 -0.11816131813E+03  0.22331869959E+03  0.27122312636E+03  0.00000000000E+00 0.  1.
         12    1    5    5    0    0  0.11631297581E+02 -0.31121283247E+02  0.28175960596E+02  0.43562668764E+02  0.00000000000E+00 0. -1.
        -11    1    3    3    0    0 -0.26981795567E+03  0.20328112794E+03  0.29095183898E+03  0.44584517356E+03  0.00000000000E+00 0.  1.
         12    1    3    3    0    0 -0.21713622681E+01  0.45285580939E+01  0.29190301202E+02  0.29619188658E+02  0.00000000000E+00 0. -1.
          5    1    4    4  501    0  0.11688539411E+03  0.18450957928E+01 -0.26891755465E+02  0.12004522584E+03  0.47000000000E+01 0.  1.
         -5    1    4    4    0  501  0.17322294373E+03 -0.13329692452E+03  0.40706105563E+02  0.22238105889E+03  0.47000000000E+01 0.  1.
          1    1    1    2  502    0 -0.44896874762E+02  0.60855446084E+02  0.12988534606E+04  0.13010531990E+04  0.00000000000E+00 0. -1.
          1    1    1    2  503    0  0.11378045400E+03  0.12069297989E+02 -0.34061598404E+04  0.34080810609E+04  0.00000000000E+00 0. -1.
<mgrwt>
<rscale>  0 0.93003624E+02</rscale>
<asrwt>0</asrwt>
<pdfrwt beam="1">  1        2 0.31764379E+00 0.75624828E+02</pdfrwt>
<pdfrwt beam="2">  1        2 0.54144602E+00 0.11437612E+03</pdfrwt>
<totfact> 0.14209125E+00</totfact>
</mgrwt>
</event>
<event>
13    1  0.2101801E-008  0.9151788E+02  0.7546771E-02  0.1320297E+00
          2   -1    0    0  502    0  0.00000000000E+00  0.00000000000E+00  0.22599423339E+04  0.22599423339E+04  0.00000000000E+00 0. -1.
          2   -1    0    0  503    0 -0.00000000000E+00 -0.00000000000E+00 -0.36495069353E+04  0.36495069353E+04  0.00000000000E+00 0. -1.
         24    2    1    2    0    0  0.87260290838E+02 -0.11104177688E+03 -0.18966334902E+04  0.19036298087E+04  0.81505939472E+02 0.  0.
         25    2    1    2    0    0 -0.25547767870E+02 -0.13890507281E+03  0.77626823397E+03  0.79885247486E+03  0.12500239124E+03 0.  0.
         24    2    1    2    0    0 -0.64234526287E+02  0.89401081189E+02  0.57794902508E+03  0.59372781298E+03  0.79806093904E+02 0.  0.
        -11    1    3    3    0    0 -0.15304149906E+02 -0.70606831411E+01 -0.17268854898E+03  0.17350909256E+03  0.00000000000E+00 0.  1.
         12    1    3    3    0    0  0.10256444074E+03 -0.10398109374E+03 -0.17239449412E+04  0.17301207162E+04  0.00000000000E+00 0. -1.
        -13    1    5    5    0    0 -0.58885927482E+02  0.43727672062E+02  0.20062489304E+03  0.21361181958E+03  0.00000000000E+00 0.  1.
         14    1    5    5    0    0 -0.53485988048E+01  0.45673409127E+02  0.37732413205E+03  0.38011599340E+03  0.00000000000E+00 0. -1.
          5    1    4    4  501    0  0.52292926470E+01 -0.14142334449E+03  0.46657896895E+03  0.48759197300E+03  0.47000000000E+01 0. -1.
         -5    1    4    4    0  501 -0.30777060517E+02  0.25182716783E+01  0.30968926502E+03  0.31126050185E+03  0.47000000000E+01 0. -1.
          1    1    1    2  502    0  0.24042333393E+02  0.71651912929E+02  0.88021619596E+03  0.88345491229E+03  0.00000000000E+00 0. -1.
          1    1    1    2  503    0 -0.21520330074E+02  0.88893855574E+02 -0.17273645663E+04  0.17297842603E+04  0.00000000000E+00 0. -1.
<mgrwt>
<rscale>  0 0.83166915E+02</rscale>
<asrwt>0</asrwt>
<pdfrwt beam="1">  1        2 0.33234446E+00 0.75577976E+02</pdfrwt>
<pdfrwt beam="2">  1        2 0.53669219E+00 0.91517876E+02</pdfrwt>
<totfact> 0.13887926E+00</totfact>
</mgrwt>
</event>
<event>
13    1  0.2101801E-008  0.7923047E+02  0.7546771E-02  0.1376918E+00
          2   -1    0    0  503    0  0.00000000000E+00  0.00000000000E+00  0.70060149388E+03  0.70060149388E+03  0.00000000000E+00 0. -1.
          2   -1    0    0  502    0 -0.00000000000E+00 -0.00000000000E+00 -0.12996977315E+04  0.12996977315E+04  0.00000000000E+00 0. -1.
         24    2    1    2    0    0 -0.48790888921E+00  0.16712669067E+03 -0.44503652336E+03  0.48215373572E+03  0.80518003909E+02 0.  0.
         25    2    1    2    0    0  0.19450857002E+02 -0.14201420527E+03  0.12847186911E+03  0.22951863508E+03  0.12500964907E+03 0.  0.
         24    2    1    2    0    0  0.13171542231E+02 -0.33347944014E+02  0.33295038162E+02  0.94122897315E+02  0.80405132536E+02 0.  0.
        -13    1    5    5    0    0  0.91170503287E+01 -0.60116190601E+02  0.25634635092E+02  0.65986449332E+02  0.00000000000E+00 0.  1.
         14    1    5    5    0    0  0.40544919021E+01  0.26768246587E+02  0.76604030698E+01  0.28136447983E+02  0.00000000000E+00 0. -1.
        -13    1    3    3    0    0  0.54378528037E+01  0.67636523492E+00 -0.88095718086E+02  0.88265980185E+02  0.00000000000E+00 0.  1.
         14    1    3    3    0    0 -0.59257616929E+01  0.16645032543E+03 -0.35694080527E+03  0.39388775553E+03  0.00000000000E+00 0. -1.
          5    1    4    4  501    0  0.97002678273E+01 -0.14868229838E+03  0.14547237844E+03  0.20829023966E+03  0.47000000000E+01 0.  1.
         -5    1    4    4    0  501  0.97505891749E+01  0.66680931154E+01 -0.17000509325E+02  0.21228395426E+02  0.47000000000E+01 0.  1.
          1    1    1    2  502    0  0.44216588187E+02  0.30626532166E+02 -0.75059252529E+03  0.75251726237E+03  0.00000000000E+00 0. -1.
          1    1    1    2  503    0 -0.76351078531E+02 -0.22391073553E+02  0.43476590377E+03  0.44198669488E+03  0.00000000000E+00 0. -1.
<mgrwt>
<rscale>  0 0.65280975E+02</rscale>
<asrwt>0</asrwt>
<pdfrwt beam="1">  1        2 0.10302963E+00 0.79230466E+02</pdfrwt>
<pdfrwt beam="2">  1        2 0.19113202E+00 0.53787463E+02</pdfrwt>
<totfact> 0.15036899E+02</totfact>
</mgrwt>
</event>
<event>
13    1  0.2101801E-008  0.2108126E+03  0.7546771E-02  0.1243698E+00
         -3   -1    0    0    0  501 -0.00000000000E+00  0.00000000000E+00  0.41849095784E+03  0.41849095784E+03  0.00000000000E+00 0.  1.
          2   -1    0    0  503    0  0.00000000000E+00 -0.00000000000E+00 -0.21852400943E+04  0.21852400943E+04  0.00000000000E+00 0. -1.
         24    2    1    2    0    0  0.14127082910E+03 -0.89932325754E+02 -0.20331156396E+03  0.27545876549E+03  0.80601917307E+02 0.  0.
         25    2    1    2    0    0  0.14298253406E+03 -0.15739539581E+02 -0.23792603782E+03  0.30482558281E+03  0.12497239018E+03 0.  0.
         24    2    1    2    0    0 -0.48749699788E+02 -0.30926666303E+02 -0.28637959507E+02  0.10382454415E+03  0.81402772222E+02 0.  0.
        -11    1    5    5    0    0 -0.24919682217E+02  0.27075335482E+02 -0.67755220644E+01  0.37416200402E+02  0.00000000000E+00 0.  1.
         12    1    5    5    0    0 -0.23830017571E+02 -0.58002001786E+02 -0.21862437443E+02  0.66408343749E+02  0.00000000000E+00 0. -1.
        -11    1    3    3    0    0  0.81563293219E+02 -0.95847276703E+02 -0.13801584209E+03  0.18678234371E+03  0.00000000000E+00 0.  1.
         12    1    3    3    0    0  0.59707535877E+02  0.59149509485E+01 -0.65295721869E+02  0.88676421780E+02  0.00000000000E+00 0. -1.
          5    1    4    4  502    0  0.14558940694E+03  0.20375425306E+02 -0.15224283836E+03  0.21168704543E+03  0.47000000000E+01 0. -1.
         -5    1    4    4    0  502 -0.26068728811E+01 -0.36114964887E+02 -0.85683199460E+02  0.93138537377E+02  0.47000000000E+01 0. -1.
          1    1    1    2  503    0 -0.62593072536E+02  0.26299073315E+02 -0.15736634436E+04  0.15751273496E+04  0.00000000000E+00 0. -1.
         -4    1    1    2    0  501 -0.17291059084E+03  0.11029945832E+03  0.27678986837E+03  0.34449481007E+03  0.00000000000E+00 0.  1.
<mgrwt>
<rscale>  0 0.11963619E+03</rscale>
<asrwt>0</asrwt>
<pdfrwt beam="2">  1        2 0.32135884E+00 0.67893549E+02</pdfrwt>
<pdfrwt beam="1">  1       -3 0.61542788E-01 0.21081265E+03</pdfrwt>
<totfact> 0.12579380E+01</totfact>
</mgrwt>
</event>
<event>
13    1  0.2101801E-008  0.2795313E+03  0.7546771E-02  0.1186842E+00
          2   -1    0    0  502    0  0.00000000000E+00  0.00000000000E+00  0.20616538936E+04  0.20616538936E+04  0.00000000000E+00 0. -1.
          2   -1    0    0  503    0 -0.00000000000E+00 -0.00000000000E+00 -0.30405233845E+04  0.30405233845E+04  0.00000000000E+00 0. -1.
         24    2    1    2    0    0  0.15968841551E+03 -0.33963956888E+02 -0.73979224919E+03  0.76200301421E+03  0.81866240180E+02 0.  0.
         25    2    1    2    0    0 -0.38868618166E+00  0.15892402738E+02 -0.97171361338E+01  0.12637741156E+03  0.12499643146E+03 0.  0.
         24    2    1    2    0    0 -0.20432011297E+03 -0.16386120757E+03 -0.79689790645E+03  0.84265747319E+03  0.80175681558E+02 0.  0.
        -11    1    5    5    0    0 -0.13702775987E+03 -0.62116204761E+02 -0.39622906711E+03  0.42383074864E+03  0.00000000000E+00 0.  1.
         12    1    5    5    0    0 -0.67292353098E+02 -0.10174500281E+03 -0.40066883935E+03  0.41882672456E+03  0.00000000000E+00 0. -1.
        -13    1    3    3    0    0  0.71370757461E+02  0.23458786891E+02 -0.25173857115E+03  0.26270974079E+03  0.00000000000E+00 0.  1.
         14    1    3    3    0    0  0.88317658045E+02 -0.57422743779E+02 -0.48805367805E+03  0.49929327342E+03  0.00000000000E+00 0. -1.
          5    1    4    4  501    0 -0.29373092295E+01  0.53216577495E+02  0.37952788637E+02  0.65598293203E+02  0.47000000000E+01 0. -1.
         -5    1    4    4    0  501  0.25486230478E+01 -0.37324174758E+02 -0.47669924771E+02  0.60779118359E+02  0.47000000000E+01 0. -1.
          1    1    1    2  502    0  0.56652230368E+02  0.27469105184E+03  0.19577746530E+04  0.19777629385E+04  0.00000000000E+00 0. -1.
          1    1    1    2  503    0 -0.11631846720E+02 -0.92758290118E+02 -0.13902368521E+04  0.13933764406E+04  0.00000000000E+00 0. -1.
<mgrwt>
<rscale>  0 0.16165370E+03</rscale>
<asrwt>0</asrwt>
<pdfrwt beam="1">  1        2 0.30318440E+00 0.27953131E+03</pdfrwt>
<pdfrwt beam="2">  1        2 0.44713578E+00 0.93484759E+02</pdfrwt>
<totfact> 0.33405857E+00</totfact>
</mgrwt>
</event>
<event>
13    1  0.2101801E-008  0.1164452E+03  0.7546771E-02  0.1293380E+00
          2   -1    0    0  503    0  0.00000000000E+00  0.00000000000E+00  0.31453423109E+04  0.31453423109E+04  0.00000000000E+00 0. -1.
          2   -1    0    0  502    0 -0.00000000000E+00 -0.00000000000E+00 -0.33481652332E+04  0.33481652332E+04  0.00000000000E+00 0. -1.
         24    2    1    2    0    0 -0.12581868418E+02 -0.23549729489E+02 -0.67451798661E+03  0.67985769428E+03  0.80740801582E+02 0.  0.
         25    2    1    2    0    0  0.12875978547E+03  0.90909063054E+02  0.66746504465E+03  0.69712142581E+03  0.12500062556E+03 0.  0.
         24    2    1    2    0    0 -0.23806019526E+03 -0.21261698128E+03 -0.36007720031E+02  0.33143042749E+03  0.81675792421E+02 0.  0.
        -11    1    5    5    0    0 -0.14722135197E+03 -0.17942441661E+03 -0.15812671653E+02  0.23263122821E+03  0.00000000000E+00 0.  1.
         12    1    5    5    0    0 -0.90838843291E+02 -0.33192564665E+02 -0.20195048378E+02  0.98799199280E+02  0.00000000000E+00 0. -1.
        -11    1    3    3    0    0  0.34775399311E+01 -0.51226978840E+02 -0.47825125549E+03  0.48099954264E+03  0.00000000000E+00 0.  1.
         12    1    3    3    0    0 -0.16059408349E+02  0.27677249351E+02 -0.19626673112E+03  0.19885815164E+03  0.00000000000E+00 0. -1.
          5    1    4    4  501    0  0.49412875916E+02 -0.26626362100E+02  0.14002205972E+03  0.15092667979E+03  0.47000000000E+01 0.  1.
         -5    1    4    4    0  501  0.79346909557E+02  0.11753542515E+03  0.52744298493E+03  0.54619474601E+03  0.47000000000E+01 0.  1.
          1    1    1    2  502    0  0.16032824448E+03  0.79784193648E+02 -0.24685624228E+04  0.24750497165E+04  0.00000000000E+00 0. -1.
          1    1    1    2  503    0 -0.38445966276E+02  0.65473454062E+02  0.23088001626E+04  0.23100482801E+04  0.00000000000E+00 0. -1.
<mgrwt>
<rscale>  0 0.94028201E+02</rscale>
<asrwt>0</asrwt>
<pdfrwt beam="1">  1        2 0.46255034E+00 0.75926711E+02</pdfrwt>
<pdfrwt beam="2">  1        2 0.49237724E+00 0.11644522E+03</pdfrwt>
<totfact> 0.71376614E-01</totfact>
</mgrwt>
</event>
<event>
13    1  0.2101801E-008  0.4140565E+03  0.7546771E-02  0.1112930E+00
          2   -1    0    0  502    0  0.00000000000E+00  0.00000000000E+00  0.20139836410E+04  0.20139836410E+04  0.00000000000E+00 0. -1.
          2   -1    0    0  503    0 -0.00000000000E+00 -0.00000000000E+00 -0.32126920200E+04  0.32126920200E+04  0.00000000000E+00 0. -1.
         24    2    1    2    0    0  0.60750304603E+03 -0.16597581713E+03 -0.93883186542E+03  0.11334536962E+04  0.81878490348E+02 0.  0.
         25    2    1    2    0    0 -0.14280582612E+03 -0.63728182377E+03 -0.24531880846E+03  0.70875322098E+03  0.12501273368E+03 0.  0.
         24    2    1    2    0    0 -0.59892828826E+03  0.10327438986E+04 -0.40390297682E+03  0.12644138066E+04  0.10163466522E+03 0.  0.
        -11    1    3    3    0    0  0.20999622858E+03 -0.95863602991E+02 -0.36517629562E+03  0.43202080190E+03  0.00000000000E+00 0.  1.
         12    1    3    3    0    0  0.39750681745E+03 -0.70112214142E+02 -0.57365556981E+03  0.70143289434E+03  0.00000000000E+00 0. -1.
        -13    1    5    5    0    0 -0.32980002459E+03  0.46864934970E+03 -0.20131122025E+03  0.60739318122E+03  0.00000000000E+00 0.  1.
         14    1    5    5    0    0 -0.26912826368E+03  0.56409454888E+03 -0.20259175657E+03  0.65702062541E+03  0.00000000000E+00 0. -1.
          5    1    4    4  501    0 -0.82814862811E+02 -0.13337524510E+03 -0.47718181684E+02  0.16415350247E+03  0.47000000000E+01 0. -1.
         -5    1    4    4    0  501 -0.59990963311E+02 -0.50390657867E+03 -0.19760062678E+03  0.54459971852E+03  0.47000000000E+01 0. -1.
          1    1    1    2  502    0  0.23094711390E+03 -0.34631147055E+03  0.12130617113E+04  0.12824924637E+04  0.00000000000E+00 0. -1.
          1    1    1    2  503    0 -0.96716045545E+02  0.11682521288E+03 -0.82371643962E+03  0.83756247333E+03  0.00000000000E+00 0. -1.
<mgrwt>
<rscale>  0 0.25059465E+03</rscale>
<asrwt>0</asrwt>
<pdfrwt beam="1">  1        2 0.29617407E+00 0.41405652E+03</pdfrwt>
<pdfrwt beam="2">  1        2 0.47245471E+00 0.15166451E+03</pdfrwt>
<totfact> 0.25383198E+00</totfact>
</mgrwt>
</event>
<event>
13    1  0.2101801E-008  0.1358240E+03  0.7546771E-02  0.1314410E+00
          2   -1    0    0  502    0  0.00000000000E+00  0.00000000000E+00  0.10322695953E+04  0.10322695953E+04  0.00000000000E+00 0. -1.
          2   -1    0    0  503    0 -0.00000000000E+00 -0.00000000000E+00 -0.98650814930E+03  0.98650814930E+03  0.00000000000E+00 0. -1.
         24    2    1    2    0    0 -0.62026271123E+02 -0.43050637448E+02 -0.28815480359E+03  0.30848605094E+03  0.80186265027E+02 0.  0.
         25    2    1    2    0    0 -0.13007973234E+03  0.18471808201E+03  0.17213449557E+02  0.25876809646E+03  0.12499247302E+03 0.  0.
         24    2    1    2    0    0 -0.25872849513E+02 -0.46044678583E+02  0.37662026056E+03  0.38902962704E+03  0.81925046775E+02 0.  0.
        -13    1    3    3    0    0  0.22817885126E+01  0.19488614028E+02 -0.38643762328E+02  0.43339970032E+02  0.00000000000E+00 0.  1.
         14    1    3    3    0    0 -0.64308059635E+02 -0.62539251477E+02 -0.24951104126E+03  0.26514608090E+03  0.00000000000E+00 0. -1.
        -13    1    5    5    0    0 -0.48082541555E+02 -0.46551220023E+02  0.33722970546E+03  0.34380637157E+03  0.00000000000E+00 0.  1.
         14    1    5    5    0    0  0.22209692043E+02  0.50654144015E+00  0.39390555098E+02  0.45223255476E+02  0.00000000000E+00 0. -1.
          5    1    4    4  501    0 -0.13254007067E+03  0.15588208346E+03  0.54054505548E+02  0.21168390077E+03  0.47000000000E+01 0. -1.
         -5    1    4    4    0  501  0.24603383259E+01  0.28835998555E+02 -0.36841055991E+02  0.47084195691E+02  0.47000000000E+01 0. -1.
          1    1    1    2  502    0  0.16941678228E+03 -0.72734251534E+02  0.48296686595E+03  0.51696161470E+03  0.00000000000E+00 0. -1.
          1    1    1    2  503    0  0.48562070694E+02 -0.22888514449E+02 -0.54288432653E+03  0.54553235541E+03  0.00000000000E+00 0. -1.
<mgrwt>
<rscale>  0 0.85392118E+02</rscale>
<asrwt>0</asrwt>
<pdfrwt beam="1">  1        2 0.15180435E+00 0.13582403E+03</pdfrwt>
<pdfrwt beam="2">  1        2 0.14507473E+00 0.53685741E+02</pdfrwt>
<totfact> 0.13298796E+02</totfact>
</mgrwt>
</event>
<event>
13    1  0.2101801E-008  0.1134455E+03  0.7546771E-02  0.1336445E+00
         -1   -1    0    0    0  501 -0.00000000000E+00  0.00000000000E+00  0.52017328043E+03  0.52017328043E+03  0.00000000000E+00 0.  1.
          2   -1    0    0  503    0  0.00000000000E+00 -0.00000000000E+00 -0.14284987195E+04  0.14284987195E+04  0.00000000000E+00 0. -1.
         24    2    1    2    0    0 -0.74671463544E+02 -0.23767696629E+03 -0.15293309894E+03  0.30190462768E+03  0.75443380706E+02 0.  0.
         25    2    1    2    0    0  0.94384860432E+02  0.35560151686E+03  0.28703612225E+02  0.38962957625E+03  0.12500547453E+03 0.  0.
         24    2    1    2    0    0 -0.40063995755E+02  0.43608045375E+02 -0.15765367067E+02  0.10832870477E+03  0.89329592533E+02 0.  0.
        -11    1    3    3    0    0 -0.43299978078E+02 -0.57700609405E+02 -0.16797881613E+02  0.74070353407E+02  0.00000000000E+00 0.  1.
         12    1    3    3    0    0 -0.31371485466E+02 -0.17997635688E+03 -0.13613521732E+03  0.22783427427E+03  0.00000000000E+00 0. -1.
        -13    1    5    5    0    0 -0.32289321725E+02  0.46121278366E+02 -0.48672088216E+02  0.74422743747E+02  0.00000000000E+00 0.  1.
         14    1    5    5    0    0 -0.77746740296E+01 -0.25132329907E+01  0.32906721150E+02  0.33905961027E+02  0.00000000000E+00 0. -1.
          5    1    4    4  502    0  0.95017580195E+02  0.26700372436E+03 -0.27222236746E+02  0.28474983677E+03  0.47000000000E+01 0.  1.
         -5    1    4    4    0  502 -0.63271976283E+00  0.88597792498E+02  0.55925848970E+02  0.10487973948E+03  0.47000000000E+01 0.  1.
          1    1    1    2  503    0  0.29827927733E+02 -0.10951211787E+03 -0.95145624786E+03  0.95820227553E+03  0.00000000000E+00 0. -1.
         -2    1    1    2    0  501 -0.94773288676E+01 -0.52020478079E+02  0.18312566257E+03  0.19060681570E+03  0.00000000000E+00 0.  1.
<mgrwt>
<rscale>  0 0.77450810E+02</rscale>
<asrwt>0</asrwt>
<pdfrwt beam="2">  1        2 0.21007333E+00 0.11344549E+03</pdfrwt>
<pdfrwt beam="1">  1       -1 0.76496073E-01 0.52876743E+02</pdfrwt>
<totfact> 0.37196293E+01</totfact>
</mgrwt>
</event>
<event>
13    1  0.2101801E-008  0.4109040E+02  0.7546771E-02  0.1519844E+00
         -1   -1    0    0    0  501 -0.00000000000E+00  0.00000000000E+00  0.19622101406E+04  0.19622101406E+04  0.00000000000E+00 0.  1.
          2   -1    0    0  503    0  0.00000000000E+00 -0.00000000000E+00 -0.22787595399E+04  0.22787595399E+04  0.00000000000E+00 0. -1.
         24    2    1    2    0    0 -0.48551327671E+03 -0.51858779042E+02  0.61041018372E+03  0.78570512983E+03  0.79495181084E+02 0.  0.
         25    2    1    2    0    0  0.37835734997E+03 -0.36482814439E+02 -0.10561857879E+03  0.41384048598E+03  0.12499353434E+03 0.  0.
         24    2    1    2    0    0  0.11256962893E+03  0.82654134676E+02  0.18219172751E+03  0.25115981083E+03  0.10190092083E+03 0.  0.
        -11    1    3    3    0    0 -0.39616545618E+03 -0.32410174724E+02  0.53883935886E+03  0.66958594874E+03  0.00000000000E+00 0.  1.
         12    1    3    3    0    0 -0.89347820538E+02 -0.19448604318E+02  0.71570824858E+02  0.11611918108E+03  0.00000000000E+00 0. -1.
        -13    1    5    5    0    0  0.12346320666E+03  0.56849530940E+02  0.11386242356E+03  0.17731239118E+03  0.00000000000E+00 0.  1.
         14    1    5    5    0    0 -0.10893577733E+02  0.25804603736E+02  0.68329303958E+02  0.73847419652E+02  0.00000000000E+00 0. -1.
          5    1    4    4  502    0  0.34690852087E+03 -0.54008473649E+02 -0.12497233191E+03  0.37269640570E+03  0.47000000000E+01 0.  1.
         -5    1    4    4    0  502  0.31448829099E+02  0.17525659210E+02  0.19353753120E+02  0.41144080282E+02  0.47000000000E+01 0.  1.
          1    1    1    2  503    0  0.35706456404E+02  0.46028023782E+01 -0.18962540338E+04  0.18965957654E+04  0.00000000000E+00 0. -1.
         -2    1    1    2    0  501 -0.41120158589E+02  0.10846564265E+01  0.89272130214E+03  0.89366848843E+03  0.00000000000E+00 0.  1.
<mgrwt>
<rscale>  0 0.38462091E+02</rscale>
<asrwt>0</asrwt>
<pdfrwt beam="2">  1        2 0.33511170E+00 0.36001900E+02</pdfrwt>
<pdfrwt beam="1">  1       -1 0.28856032E+00 0.41090399E+02</pdfrwt>
<totfact> 0.50583025E-01</totfact>
</mgrwt>
</event>
<event>
13    1  0.2101801E-008  0.6682216E+02  0.7546771E-02  0.1426152E+00
          2   -1    0    0  502    0  0.00000000000E+00  0.00000000000E+00  0.74957170492E+03  0.74957170492E+03  0.00000000000E+00 0. -1.
          2   -1    0    0  503    0 -0.00000000000E+00 -0.00000000000E+00 -0.17916323685E+04  0.17916323685E+04  0.00000000000E+00 0. -1.
         24    2    1    2    0    0  0.23912226551E+03 -0.10382941298E+03 -0.71873063250E+03  0.76861299037E+03  0.78944296922E+02 0.  0.
         25    2    1    2    0    0 -0.31570884485E+03  0.13176659502E+03  0.39322899994E+03  0.53599274197E+03  0.12499865112E+03 0.  0.
         24    2    1    2    0    0  0.89722330660E+02  0.78172829372E+02 -0.23802177980E+03  0.27810431509E+03  0.80787093901E+02 0.  0.
        -11    1    3    3    0    0 -0.24897003521E+00 -0.10815297450E+02 -0.97821502189E+01  0.14585030268E+02  0.00000000000E+00 0.  1.
         12    1    3    3    0    0  0.23937123555E+03 -0.93014115527E+02 -0.70894848228E+03  0.75402796011E+03  0.00000000000E+00 0. -1.
        -13    1    5    5    0    0  0.24500467310E+02  0.97063040556E+01 -0.52664817992E+01  0.26874171008E+02  0.00000000000E+00 0.  1.
         14    1    5    5    0    0  0.65221863351E+02  0.68466525316E+02 -0.23275529800E+03  0.25123014408E+03  0.00000000000E+00 0. -1.
          5    1    4    4  501    0 -0.18763155697E+03  0.12293622004E+02  0.18454328323E+03  0.26350530867E+03  0.47000000000E+01 0. -1.
         -5    1    4    4    0  501 -0.12807728787E+03  0.11947297301E+03  0.20868571670E+03  0.27248743330E+03  0.47000000000E+01 0. -1.
          1    1    1    2  502    0 -0.20303411749E+02 -0.63489257461E+02  0.23468293181E+03  0.24396555664E+03  0.00000000000E+00 0. -1.
          1    1    1    2  503    0  0.71676604249E+01 -0.42620753950E+02 -0.71322018302E+03  0.71452846933E+03  0.00000000000E+00 0. -1.
<mgrwt>
<rscale>  0 0.53740154E+02</rscale>
<asrwt>0</asrwt>
<pdfrwt beam="1">  1        2 0.11023113E+00 0.66822165E+02</pdfrwt>
<pdfrwt beam="2">  1        2 0.26347535E+00 0.43219255E+02</pdfrwt>
<totfact> 0.83103270E+01</totfact>
</mgrwt>
</event>
<event>
13    1  0.2101801E-008  0.1549185E+03  0.7546771E-02  0.1324386E+00
         -1   -1    0    0    0  501 -0.00000000000E+00  0.00000000000E+00  0.12394485737E+04  0.12394485737E+04  0.00000000000E+00 0.  1.
          2   -1    0    0  503    0  0.00000000000E+00 -0.00000000000E+00 -0.28383403698E+04  0.28383403698E+04  0.00000000000E+00 0. -1.
         24    2    1    2    0    0 -0.13917558725E+01 -0.80173601245E+02  0.54859797658E+02  0.12793860681E+03  0.83240293078E+02 0.  0.
         25    2    1    2    0    0 -0.16804650362E+03  0.10361360552E+03 -0.44678006360E+02  0.23790082724E+03  0.12500109087E+03 0.  0.
         24    2    1    2    0    0 -0.58977576844E+02 -0.54755520769E+02 -0.49448715435E+03  0.50744642632E+03  0.80670987013E+02 0.  0.
        -11    1    5    5    0    0 -0.10571875881E+01  0.19507206821E+02 -0.97889494536E+02  0.99819847245E+02  0.00000000000E+00 0.  1.
         12    1    5    5    0    0 -0.57920389256E+02 -0.74262727590E+02 -0.39659765981E+03  0.40762657908E+03  0.00000000000E+00 0. -1.
        -13    1    3    3    0    0 -0.41604767796E+02 -0.38654267956E+02  0.18842387855E+02  0.59834310514E+02  0.00000000000E+00 0.  1.
         14    1    3    3    0    0  0.40213011923E+02 -0.41519333289E+02  0.36017409803E+02  0.68104296294E+02  0.00000000000E+00 0. -1.
          5    1    4    4  502    0  0.96620541480E+01  0.42214244296E+02  0.36584004958E+01  0.43713517430E+02  0.47000000000E+01 0. -1.
         -5    1    4    4    0  502 -0.17770855777E+03  0.61399361227E+02 -0.48336406856E+02  0.19418730981E+03  0.47000000000E+01 0. -1.
          1    1    1    2  503    0  0.26750115578E+03  0.49364942865E+02 -0.21505299946E+04  0.21676653394E+04  0.00000000000E+00 0. -1.
         -2    1    1    2    0  501 -0.39085319441E+02 -0.18049426374E+02  0.10359435616E+04  0.10368377437E+04  0.00000000000E+00 0.  1.
<mgrwt>
<rscale>  0 0.81666972E+02</rscale>
<asrwt>0</asrwt>
<pdfrwt beam="2">  1        2 0.41740299E+00 0.15491846E+03</pdfrwt>
<pdfrwt beam="1">  1       -1 0.18227185E+00 0.43051643E+02</pdfrwt>
<totfact> 0.97532142E-01</totfact>
</mgrwt>
</event>
<event>
13    1  0.2101801E-008  0.8240606E+02  0.7546771E-02  0.1448770E+00
          2   -1    0    0  502    0  0.00000000000E+00  0.00000000000E+00  0.14050171392E+04  0.14050171392E+04  0.00000000000E+00 0. -1.
          2   -1    0    0  503    0 -0.00000000000E+00 -0.00000000000E+00 -0.76467605526E+03  0.76467605526E+03  0.00000000000E+00 0. -1.
         24    2    1    2    0    0 -0.77115768789E+02 -0.14602545123E+03 -0.22432352885E+03  0.28983599473E+03  0.80084855270E+02 0.  0.
         25    2    1    2    0    0  0.10050275407E+03  0.22506774322E+03  0.18268878633E+03  0.33129577850E+03  0.12500163035E+03 0.  0.
         24    2    1    2    0    0  0.29927103411E+02 -0.74412146732E+02 -0.76304767852E+02  0.13628601163E+03  0.79490001061E+02 0.  0.
        -11    1    5    5    0    0  0.51763673607E+02 -0.31151908662E+02 -0.60028478010E+02  0.85166527996E+02  0.00000000000E+00 0.  1.
         12    1    5    5    0    0 -0.21836570196E+02 -0.43260238070E+02 -0.16276289842E+02  0.51119483633E+02  0.00000000000E+00 0. -1.
        -13    1    3    3    0    0  0.82839318566E+01 -0.33638102941E+02 -0.15910972604E+02  0.38122231646E+02  0.00000000000E+00 0.  1.
         14    1    3    3    0    0 -0.85399700645E+02 -0.11238734829E+03 -0.20841255625E+03  0.25171376309E+03  0.00000000000E+00 0. -1.
          5    1    4    4  501    0  0.60671656245E+02  0.11489872390E+03  0.16904366135E+03  0.21326184860E+03  0.47000000000E+01 0.  1.
         -5    1    4    4    0  501  0.39831097826E+02  0.11016901932E+03  0.13645124971E+02  0.11803392989E+03  0.47000000000E+01 0.  1.
          1    1    1    2  502    0  0.28762799968E+02  0.68951282257E+01  0.10798203293E+04  0.10802253399E+04  0.00000000000E+00 0. -1.
          1    1    1    2  503    0 -0.82076888661E+02 -0.11525273480E+02 -0.32153973500E+03  0.33205006966E+03  0.00000000000E+00 0. -1.
<mgrwt>
<rscale>  0 0.49369863E+02</rscale>
<asrwt>0</asrwt>
<pdfrwt beam="1">  1        2 0.20662017E+00 0.29577719E+02</pdfrwt>
<pdfrwt beam="2">  1        2 0.11245236E+00 0.82406063E+02</pdfrwt>
<totfact> 0.12619210E+02</totfact>
</mgrwt>
</event>
<event>
13    1  0.2101801E-008  0.1597262E+03  0.7546771E-02  0.1304481E+00
          2   -1    0    0  503    0  0.00000000000E+00  0.00000000000E+00  0.53928965054E+03  0.53928965054E+03  0.00000000000E+00 0. -1.
          2   -1    0    0  502    0 -0.00000000000E+00 -0.00000000000E+00 -0.21643848681E+04  0.21643848681E+04  0.00000000000E+00 0. -1.
         24    2    1    2    0    0 -0.22385258270E+02 -0.74559437323E+02 -0.12632576211E+03  0.16949098926E+03  0.81907190081E+02 0.  0.
         25    2    1    2    0    0  0.16888792718E+03  0.25613573014E+03 -0.30866576108E+03  0.45281703715E+03  0.12506027695E+03 0.  0.
         24    2    1    2    0    0 -0.10368806212E+03 -0.51263769187E+01  0.44166741848E+02  0.13278374225E+03  0.70023761361E+02 0.  0.
        -13    1    3    3    0    0  0.18177531275E+02 -0.60204424336E+01 -0.68349626376E+02  0.70981263698E+02  0.00000000000E+00 0.  1.
         14    1    3    3    0    0 -0.40562789546E+02 -0.68538994890E+02 -0.57976135730E+02  0.98509725562E+02  0.00000000000E+00 0. -1.
        -13    1    5    5    0    0 -0.47630227948E+02 -0.26886889902E+02  0.47663500774E+02  0.72548968077E+02  0.00000000000E+00 0.  1.
         14    1    5    5    0    0 -0.56057834167E+02  0.21760512983E+02 -0.34967589260E+01  0.60234774174E+02  0.00000000000E+00 0. -1.
          5    1    4    4  501    0  0.25067320398E+02 -0.65800878513E+01 -0.52251254527E+02  0.58514542703E+02  0.47000000000E+01 0. -1.
         -5    1    4    4    0  501  0.14382060678E+03  0.26271581799E+03 -0.25641450655E+03  0.39430249444E+03  0.47000000000E+01 0. -1.
          1    1    1    2  502    0 -0.43445261364E+02 -0.24667903321E+02 -0.15748864457E+04  0.15756786833E+04  0.00000000000E+00 0. -1.
          1    1    1    2  503    0  0.63065456945E+00 -0.15178201257E+03  0.34061600945E+03  0.37290406670E+03  0.00000000000E+00 0. -1.
<mgrwt>
<rscale>  0 0.89330353E+02</rscale>
<asrwt>0</asrwt>
<pdfrwt beam="1">  1        2 0.79307301E-01 0.15972619E+03</pdfrwt>
<pdfrwt beam="2">  1        2 0.31829189E+00 0.49959946E+02</pdfrwt>
<totfact> 0.78089713E+01</totfact>
</mgrwt>
</event>
<event>
13    1  0.2101801E-008  0.2234239E+03  0.7546771E-02  0.1232915E+00
         -3   -1    0    0    0  502 -0.00000000000E+00  0.00000000000E+00  0.34620679279E+03  0.34620679279E+03  0.00000000000E+00 0.  1.
         -1   -1    0    0    0  501  0.00000000000E+00 -0.00000000000E+00 -0.11979039542E+04  0.11979039542E+04  0.00000000000E+00 0.  1.
         24    2    1    2    0    0  0.29023752887E+02 -0.61566097973E+02 -0.51793115294E+03  0.52865435440E+03  0.81178720051E+02 0.  0.
         25    2    1    2    0    0 -0.86392766770E+02 -0.35882758313E+03 -0.64116600572E+02  0.39489244316E+03  0.12493261636E+03 0.  0.
         24    2    1    2    0    0 -0.91714043733E+02  0.85976406464E+02 -0.29532288354E+02  0.15283192354E+03  0.81743700130E+02 0.  0.
        -11    1    5    5    0    0  0.12061488036E+02  0.28936610397E+02 -0.92787161533E+01  0.32694058916E+02  0.00000000000E+00 0.  1.
         12    1    5    5    0    0 -0.10377553177E+03  0.57039796066E+02 -0.20253572201E+02  0.12013786462E+03  0.00000000000E+00 0. -1.
        -13    1    3    3    0    0 -0.46145622551E+00 -0.37792616468E+02 -0.44381272230E+03  0.44541915908E+03  0.00000000000E+00 0.  1.
         14    1    3    3    0    0  0.29485209112E+02 -0.23773481505E+02 -0.74118430642E+02  0.83235195320E+02  0.00000000000E+00 0. -1.
          5    1    4    4  503    0 -0.88694712689E+02 -0.11776556307E+03 -0.38298154585E+02  0.15239527076E+03  0.47000000000E+01 0. -1.
         -5    1    4    4    0  503  0.23019459191E+01 -0.24106202006E+03 -0.25818445987E+02  0.24249717240E+03  0.47000000000E+01 0. -1.
         -2    1    1    2    0  501 -0.20457062898E+02  0.68507888694E+02 -0.99299118093E+02  0.12236068441E+03  0.00000000000E+00 0.  1.
         -4    1    1    2    0  502  0.16954012052E+03  0.26590938595E+03 -0.14081800150E+03  0.34537134152E+03  0.00000000000E+00 0.  1.
<mgrwt>
<rscale>  0 0.12638885E+03</rscale>
<asrwt>0</asrwt>
<pdfrwt beam="2">  1       -1 0.17616234E+00 0.71497009E+02</pdfrwt>
<pdfrwt beam="1">  1       -3 0.50912764E-01 0.22342390E+03</pdfrwt>
<totfact> 0.47644252E+00</totfact>
</mgrwt>
</event>
<event>
13    1  0.2101801E-008  0.9637535E+02  0.7546771E-02  0.1464434E+00
          2   -1    0    0  503    0  0.00000000000E+00  0.00000000000E+00  0.93967346731E+03  0.93967346731E+03  0.00000000000E+00 0. -1.
          2   -1    0    0  502    0 -0.00000000000E+00 -0.00000000000E+00 -0.23764287829E+04  0.23764287829E+04  0.00000000000E+00 0. -1.
         24    2    1    2    0    0  0.12893396975E+03  0.11256785253E+03 -0.68931970216E+03  0.71471109508E+03  0.79717047537E+02 0.  0.
         25    2    1    2    0    0 -0.19080821812E+03 -0.20282589390E+03  0.94514032962E+02  0.31953822865E+03  0.12500263118E+03 0.  0.
         24    2    1    2    0    0  0.25257130750E+02  0.15354917761E+02 -0.18097833578E+03  0.19939262194E+03  0.78297915102E+02 0.  0.
        -11    1    3    3    0    0 -0.83619105699E+01  0.23434792213E+02 -0.10379706964E+03  0.10673772857E+03  0.00000000000E+00 0.  1.
         12    1    3    3    0    0  0.13729588032E+03  0.89133060319E+02 -0.58552263252E+03  0.60797336651E+03  0.00000000000E+00 0. -1.
        -11    1    5    5    0    0  0.47402054847E+02 -0.79239055936E+01 -0.13500954619E+03  0.14330848072E+03  0.00000000000E+00 0.  1.
         12    1    5    5    0    0 -0.22144924098E+02  0.23278823355E+02 -0.45968789587E+02  0.56084141218E+02  0.00000000000E+00 0. -1.
          5    1    4    4  501    0  0.22284388887E+01 -0.64229520174E+02  0.39455697561E+02  0.75559508148E+02  0.47000000000E+01 0.  1.
         -5    1    4    4    0  501 -0.19303665701E+03 -0.13859637372E+03  0.55058335402E+02  0.24397872050E+03  0.47000000000E+01 0.  1.
          1    1    1    2  502    0  0.24820978191E+02  0.94131432232E+02 -0.13698089699E+04  0.13732637844E+04  0.00000000000E+00 0. -1.
          1    1    1    2  503    0  0.11796139432E+02 -0.19228308628E+02  0.70883765936E+03  0.70919652007E+03  0.00000000000E+00 0. -1.
<mgrwt>
<rscale>  0 0.46626856E+02</rscale>
<asrwt>0</asrwt>
<pdfrwt beam="1">  1        2 0.13818728E+00 0.22558297E+02</pdfrwt>
<pdfrwt beam="2">  1        2 0.34947481E+00 0.96375346E+02</pdfrwt>
<totfact> 0.32087582E+01</totfact>
</mgrwt>
</event>
<event>
13    1  0.2101801E-008  0.1164461E+03  0.7546771E-02  0.1382069E+00
          2   -1    0    0  503    0  0.00000000000E+00  0.00000000000E+00  0.29487657342E+04  0.29487657342E+04  0.00000000000E+00 0. -1.
         -3   -1    0    0    0  501 -0.00000000000E+00 -0.00000000000E+00 -0.59123050257E+03  0.59123050257E+03  0.00000000000E+00 0.  1.
         24    2    1    2    0    0  0.12263067380E+03  0.62360362873E+00  0.25397273345E+03  0.29315105449E+03  0.79979499732E+02 0.  0.
         25    2    1    2    0    0 -0.21483416351E+03  0.11076478829E+03  0.22878423289E+03  0.35551359527E+03  0.12500054027E+03 0.  0.
         24    2    1    2    0    0  0.47404690905E+02 -0.65367806521E+01  0.52934131240E+03  0.53772702575E+03  0.81597763356E+02 0.  0.
        -11    1    3    3    0    0  0.40493180214E+02 -0.29352663467E+02  0.14532277709E+03  0.15368795021E+03  0.00000000000E+00 0.  1.
         12    1    3    3    0    0  0.82137493583E+02  0.29976267096E+02  0.10864995635E+03  0.13946310428E+03  0.00000000000E+00 0. -1.
        -13    1    5    5    0    0  0.26653740931E+02  0.34453193280E+02  0.17136811694E+03  0.17681763469E+03  0.00000000000E+00 0.  1.
         14    1    5    5    0    0  0.20750949974E+02 -0.40989973932E+02  0.35797319546E+03  0.36090939106E+03  0.00000000000E+00 0. -1.
          5    1    4    4  502    0 -0.14010077210E+03  0.65299973692E+02  0.61004541107E+02  0.16624065972E+03  0.47000000000E+01 0.  1.
         -5    1    4    4    0  502 -0.74733391406E+02  0.45464814595E+02  0.16777969178E+03  0.18927293555E+03  0.47000000000E+01 0.  1.
          1    1    1    2  503    0  0.75438364645E+02 -0.87747421994E+02  0.18470972717E+04  0.18507184789E+04  0.00000000000E+00 0. -1.
         -4    1    1    2    0  501 -0.30639565841E+02 -0.17104189270E+02 -0.50166031886E+03  0.50288608233E+03  0.00000000000E+00 0.  1.
<mgrwt>
<rscale>  0 0.63922935E+02</rscale>
<asrwt>0</asrwt>
<pdfrwt beam="1">  1        2 0.43364201E+00 0.11644614E+03</pdfrwt>
<pdfrwt beam="2">  1       -3 0.86945664E-01 0.35090402E+02</pdfrwt>
<totfact> 0.21899668E+00</totfact>
</mgrwt>
</event>
<event>
13    1  0.2101801E-008  0.1482197E+03  0.7546771E-02  0.1297964E+00
          2   -1    0    0  502    0  0.00000000000E+00  0.00000000000E+00  0.87131924954E+03  0.87131924954E+03  0.00000000000E+00 0. -1.
          2   -1    0    0  503    0 -0.00000000000E+00 -0.00000000000E+00 -0.35895657508E+04  0.35895657508E+04  0.00000000000E+00 0. -1.
         24    2    1    2    0    0 -0.12178592610E+02 -0.16462057606E+03 -0.53111661337E+03  0.56197976292E+03  0.80549020875E+02 0.  0.
         25    2    1    2    0    0  0.18282027933E+03  0.25133396854E+03  0.26962342069E+03  0.43001647666E+03  0.12500145173E+03 0.  0.
         24    2    1    2    0    0  0.14986233398E+01 -0.71358661238E+02 -0.47381036417E+03  0.48571972465E+03  0.79580684285E+02 0.  0.
        -11    1    3    3    0    0  0.24123130157E+02 -0.16882348003E+02 -0.58684044530E+02  0.65656349008E+02  0.00000000000E+00 0.  1.
         12    1    3    3    0    0 -0.36301722767E+02 -0.14773822806E+03 -0.47243256884E+03  0.49632341392E+03  0.00000000000E+00 0. -1.
        -13    1    5    5    0    0 -0.29869664661E+02 -0.35789285026E+02 -0.35080156488E+03  0.35388530305E+03  0.00000000000E+00 0.  1.
         14    1    5    5    0    0  0.31368288001E+02 -0.35569376212E+02 -0.12300879929E+03  0.13183442160E+03  0.00000000000E+00 0. -1.
          5    1    4    4  501    0  0.22875149107E+02  0.13264346529E+03  0.12582170952E+03  0.18431156751E+03  0.47000000000E+01 0. -1.
         -5    1    4    4    0  501  0.15994513022E+03  0.11869050325E+03  0.14380171117E+03  0.24570490915E+03  0.47000000000E+01 0. -1.
          1    1    1    2  502    0 -0.14417570567E+03  0.34503924320E+02  0.48878920405E+03  0.51077592044E+03  0.00000000000E+00 0. -1.
          1    1    1    2  503    0 -0.27964604393E+02 -0.49858655561E+02 -0.24717321485E+04  0.24723931157E+04  0.00000000000E+00 0. -1.
<mgrwt>
<rscale>  0 0.92049268E+02</rscale>
<asrwt>0</asrwt>
<pdfrwt beam="1">  1        2 0.12813519E+00 0.14821972E+03</pdfrwt>
<pdfrwt beam="2">  1        2 0.52787731E+00 0.57165590E+02</pdfrwt>
<totfact> 0.80458364E+00</totfact>
</mgrwt>
</event>
<event>
13    1  0.2101801E-008  0.1515396E+03  0.7546771E-02  0.1275618E+00
          2   -1    0    0  502    0  0.00000000000E+00  0.00000000000E+00  0.15062858959E+04  0.15062858959E+04  0.00000000000E+00 0. -1.
          2   -1    0    0  503    0 -0.00000000000E+00 -0.00000000000E+00 -0.14435392893E+04  0.14435392893E+04  0.00000000000E+00 0. -1.
         24    2    1    2    0    0  0.10239954374E+03  0.18844863678E+02 -0.12326079026E+03  0.18023773935E+03  0.80322007105E+02 0.  0.
         25    2    1    2    0    0 -0.10882214298E+02 -0.61022669436E+02  0.63627090015E+03  0.65138888823E+03  0.12499854625E+03 0.  0.
         24    2    1    2    0    0 -0.36977244433E+00 -0.66142734802E+02  0.23614322479E+03  0.25856779405E+03  0.81967575355E+02 0.  0.
        -11    1    5    5    0    0  0.25819010885E+02  0.77280845228E+01  0.60297826737E+02  0.66046744982E+02  0.00000000000E+00 0.  1.
         12    1    5    5    0    0 -0.26188783329E+02 -0.73870819325E+02  0.17584539805E+03  0.19252104907E+03  0.00000000000E+00 0. -1.
        -11    1    3    3    0    0 -0.11103952291E+02  0.69265374333E+01 -0.30424554701E+02  0.33119906492E+02  0.00000000000E+00 0.  1.
         12    1    3    3    0    0  0.11350349604E+03  0.11918326244E+02 -0.92836235558E+02  0.14711783286E+03  0.00000000000E+00 0. -1.
          5    1    4    4  501    0 -0.54430914895E+02 -0.61457646447E+02  0.26297354576E+03  0.27553029339E+03  0.47000000000E+01 0.  1.
         -5    1    4    4    0  501  0.43548700597E+02  0.43497701077E+00  0.37329735438E+03  0.37585859484E+03  0.47000000000E+01 0.  1.
          1    1    1    2  502    0  0.48982780109E+02 -0.48601443295E+02  0.57584602210E+03  0.57996556295E+03  0.00000000000E+00 0. -1.
          1    1    1    2  503    0 -0.14013033711E+03  0.15692198386E+03 -0.12622527502E+04  0.12796652006E+04  0.00000000000E+00 0. -1.
<mgrwt>
<rscale>  0 0.10225795E+03</rscale>
<asrwt>0</asrwt>
<pdfrwt beam="1">  1        2 0.22151263E+00 0.69002993E+02</pdfrwt>
<pdfrwt beam="2">  1        2 0.21228519E+00 0.15153964E+03</pdfrwt>
<totfact> 0.42276396E+01</totfact>
</mgrwt>
</event>
<event>
13    1  0.2101801E-008  0.5202652E+02  0.7546771E-02  0.1490393E+00
          2   -1    0    0  503    0  0.00000000000E+00  0.00000000000E+00  0.89992991133E+03  0.89992991133E+03  0.00000000000E+00 0. -1.
         -1   -1    0    0    0  501 -0.00000000000E+00 -0.00000000000E+00 -0.19808185147E+04  0.19808185147E+04  0.00000000000E+00 0.  1.
         24    2    1    2    0    0  0.10597982860E+03 -0.13560612070E+02 -0.37530834813E+03  0.39787643379E+03  0.77676805560E+02 0.  0.
         25    2    1    2    0    0 -0.19722131405E+03  0.98217590355E+02 -0.44392803652E+02  0.25717520780E+03  0.12500169887E+03 0.  0.
         24    2    1    2    0    0  0.48992923747E+02 -0.15038659840E+02 -0.51836053433E+02  0.10881054575E+03  0.80785460098E+02 0.  0.
        -11    1    3    3    0    0  0.55343436026E+01 -0.23023876208E+02 -0.30512800033E+02  0.38623293498E+02  0.00000000000E+00 0.  1.
         12    1    3    3    0    0  0.10044548500E+03  0.94632641386E+01 -0.34479554809E+03  0.35925314029E+03  0.00000000000E+00 0. -1.
        -11    1    5    5    0    0 -0.49446670983E+01 -0.27415658824E+02 -0.45171810848E+02  0.53071278266E+02  0.00000000000E+00 0.  1.
         12    1    5    5    0    0  0.53937590845E+02  0.12376998985E+02 -0.66642425846E+01  0.55739267481E+02  0.00000000000E+00 0. -1.
          5    1    4    4  502    0 -0.13926440274E+02  0.59072921941E+01 -0.49354407274E+02  0.51834248882E+02  0.47000000000E+01 0.  1.
         -5    1    4    4    0  502 -0.18329487377E+03  0.92310298161E+02  0.49616036221E+01  0.20534095891E+03  0.47000000000E+01 0.  1.
          1    1    1    2  503    0  0.39477312386E+01 -0.34538501087E+02  0.75287145576E+03  0.75367361738E+03  0.00000000000E+00 0. -1.
         -2    1    1    2    0  501  0.38300830458E+02 -0.35079817359E+02 -0.13622228539E+04  0.13632126213E+04  0.00000000000E+00 0.  1.
<mgrwt>
<rscale>  0 0.42527845E+02</rscale>
<asrwt>0</asrwt>
<pdfrwt beam="1">  1        2 0.13234264E+00 0.34763381E+02</pdfrwt>
<pdfrwt beam="2">  1       -1 0.29129684E+00 0.52026516E+02</pdfrwt>
<totfact> 0.21765690E+00</totfact>
</mgrwt>
</event>
<event>
13    1  0.2101801E-008  0.4898910E+02  0.7546771E-02  0.1475644E+00
          2   -1    0    0  502    0  0.00000000000E+00  0.00000000000E+00  0.40161604022E+04  0.40161604022E+04  0.00000000000E+00 0. -1.
          2   -1    0    0  503    0 -0.00000000000E+00 -0.00000000000E+00 -0.22371119465E+04  0.22371119465E+04  0.00000000000E+00 0. -1.
         24    2    1    2    0    0 -0.22346145400E+03 -0.23563020120E+02 -0.24350357560E+03  0.34114054763E+03  0.81195101866E+02 0.  0.
         25    2    1    2    0    0 -0.18708341323E+03 -0.48093317320E+02 -0.80932809750E+02  0.24390492279E+03  0.12500528385E+03 0.  0.
         24    2    1    2    0    0  0.47063733272E+03  0.21025293868E+02  0.84674530497E+03  0.97104129773E+03  0.63261587656E+02 0.  0.
        -11    1    5    5    0    0  0.32759473798E+03  0.28191041589E+02  0.53487762184E+03  0.62785915421E+03  0.00000000000E+00 0.  1.
         12    1    5    5    0    0  0.14304259475E+03 -0.71657477208E+01  0.31186768313E+03  0.34318214353E+03  0.00000000000E+00 0. -1.
        -13    1    3    3    0    0 -0.82957947130E+02  0.92458570133E+01 -0.42374010676E+02  0.93611236744E+02  0.00000000000E+00 0.  1.
         14    1    3    3    0    0 -0.14050350687E+03 -0.32808877134E+02 -0.20112956493E+03  0.24752931089E+03  0.00000000000E+00 0. -1.
          5    1    4    4  501    0 -0.45927876508E+02 -0.51461202765E+01  0.33377325484E+02  0.57201295885E+02  0.47000000000E+01 0.  1.
         -5    1    4    4    0  501 -0.14115553672E+03 -0.42947197044E+02 -0.11431013523E+03  0.18670362690E+03  0.47000000000E+01 0.  1.
          1    1    1    2  502    0 -0.47578774448E+02  0.11635034281E+02  0.29765172807E+04  0.29769202602E+04  0.00000000000E+00 0. -1.
          1    1    1    2  503    0 -0.12513691049E+02  0.38996009291E+02 -0.17197777447E+04  0.17202653203E+04  0.00000000000E+00 0. -1.
<mgrwt>
<rscale>  0 0.44792076E+02</rscale>
<asrwt>0</asrwt>
<pdfrwt beam="1">  1        2 0.59061182E+00 0.48989097E+02</pdfrwt>
<pdfrwt beam="2">  1        2 0.32898705E+00 0.40954624E+02</pdfrwt>
<totfact> 0.10294084E+00</totfact>
</mgrwt>
</event>
<event>
13    1  0.2101801E-008  0.4368014E+02  0.7546771E-02  0.1499797E+00
          2   -1    0    0  502    0  0.00000000000E+00  0.00000000000E+00  0.36469402256E+04  0.36469402256E+04  0.00000000000E+00 0. -1.
          2   -1    0    0  503    0 -0.00000000000E+00 -0.00000000000E+00 -0.25696302467E+04  0.25696302467E+04  0.00000000000E+00 0. -1.
         24    2    1    2    0    0  0.56257728623E+03 -0.28814852097E+03 -0.19029313936E+04  0.20068075608E+04  0.81276837190E+02 0.  0.
         25    2    1    2    0    0 -0.46957001869E+03  0.62820581163E+03  0.34007980705E+03  0.86395499700E+03  0.12500166988E+03 0.  0.
         24    2    1    2    0    0 -0.11507852992E+03 -0.29560306883E+03  0.38378964743E+02  0.33091074496E+03  0.86050763172E+02 0.  0.
        -11    1    5    5    0    0 -0.46061702120E+02 -0.13499600388E+03  0.60052344999E+02  0.15476396740E+03  0.00000000000E+00 0.  1.
         12    1    5    5    0    0 -0.69016827802E+02 -0.16060706495E+03 -0.21673380256E+02  0.17614677755E+03  0.00000000000E+00 0. -1.
        -13    1    3    3    0    0  0.45201984918E+03 -0.19896919549E+03 -0.14208510916E+04  0.15042368528E+04  0.00000000000E+00 0.  1.
         14    1    3    3    0    0  0.11055743705E+03 -0.89179325483E+02 -0.48208030197E+03  0.50257070799E+03  0.00000000000E+00 0. -1.
          5    1    4    4  501    0 -0.12538619108E+03  0.24254205891E+03  0.16031056058E+03  0.31665424849E+03  0.47000000000E+01 0.  1.
         -5    1    4    4    0  501 -0.34418382761E+03  0.38566375272E+03  0.17976924647E+03  0.54730074851E+03  0.47000000000E+01 0.  1.
          1    1    1    2  502    0 -0.20152658240E+02 -0.33153567179E+02  0.28058918803E+04  0.28061601046E+04  0.00000000000E+00 0. -1.
          1    1    1    2  503    0  0.42223920615E+02 -0.11300654644E+02 -0.20410927961E+03  0.20873706497E+03  0.00000000000E+00 0. -1.
<mgrwt>
<rscale>  0 0.41166786E+02</rscale>
<asrwt>0</asrwt>
<pdfrwt beam="1">  1        2 0.53631474E+00 0.38798050E+02</pdfrwt>
<pdfrwt beam="2">  1        2 0.37788680E+00 0.43680140E+02</pdfrwt>
<totfact> 0.12667552E+00</totfact>
</mgrwt>
</event>
<event>
13    1  0.2101801E-008  0.1543272E+03  0.7546771E-02  0.1393005E+00
          2   -1    0    0  502    0  0.00000000000E+00  0.00000000000E+00  0.90929835833E+03  0.90929835833E+03  0.00000000000E+00 0. -1.
          2   -1    0    0  503    0 -0.00000000000E+00 -0.00000000000E+00 -0.85209835746E+03  0.85209835746E+03  0.00000000000E+00 0. -1.
         24    2    1    2    0    0  0.61343437119E+02  0.10495555384E+03 -0.16076066791E+03  0.21696866935E+03  0.80328858903E+02 0.  0.
         25    2    1    2    0    0 -0.18665868325E+03 -0.38862369208E+02  0.65841553650E+03  0.69676915799E+03  0.12499797217E+03 0.  0.
         24    2    1    2    0    0  0.28289610135E+02  0.31342945253E+02  0.16323326330E+03  0.18300066650E+03  0.71143962726E+02 0.  0.
        -11    1    3    3    0    0  0.60951486875E+02  0.47435145023E+02 -0.13132456069E+03  0.15235260738E+03  0.00000000000E+00 0.  1.
         12    1    3    3    0    0  0.39195024451E+00  0.57520408821E+02 -0.29436107215E+02  0.64616061965E+02  0.00000000000E+00 0. -1.
        -11    1    5    5    0    0 -0.18507866196E+02  0.90912033458E+01  0.13733161915E+02  0.24774802231E+02  0.00000000000E+00 0.  1.
         12    1    5    5    0    0  0.46797476331E+02  0.22251741908E+02  0.14950010139E+03  0.15822586427E+03  0.00000000000E+00 0. -1.
          5    1    4    4  501    0 -0.12397228888E+03 -0.43263590643E+02  0.58700660507E+03  0.60153113892E+03  0.47000000000E+01 0.  1.
         -5    1    4    4    0  501 -0.62686394371E+02  0.44012214355E+01  0.71408931425E+02  0.95238019071E+02  0.47000000000E+01 0.  1.
          1    1    1    2  502    0 -0.35880483327E+01  0.23975087485E+02  0.13429925659E+02  0.27713567327E+02  0.00000000000E+00 0. -1.
          1    1    1    2  503    0  0.10061368433E+03 -0.12141121737E+03 -0.61711805668E+03  0.63694465463E+03  0.00000000000E+00 0. -1.
<mgrwt>
<rscale>  0 0.61165461E+02</rscale>
<asrwt>0</asrwt>
<pdfrwt beam="1">  1        2 0.13372035E+00 0.24242090E+02</pdfrwt>
<pdfrwt beam="2">  1        2 0.12530858E+00 0.15432719E+03</pdfrwt>
<totfact> 0.19497080E+02</totfact>
</mgrwt>
</event>
<event>
13    1  0.2101801E-008  0.6465432E+02  0.7546771E-02  0.1455616E+00
          2   -1    0    0  503    0  0.00000000000E+00  0.00000000000E+00  0.13130385824E+04  0.13130385824E+04  0.00000000000E+00 0. -1.
          2   -1    0    0  502    0 -0.00000000000E+00 -0.00000000000E+00 -0.68301398631E+03  0.68301398631E+03  0.00000000000E+00 0. -1.
         24    2    1    2    0    0  0.14249699157E+02 -0.16124683432E+02 -0.35306854573E+02  0.90402735484E+02  0.80392917980E+02 0.  0.
         25    2    1    2    0    0  0.10054356853E+03  0.54530385494E+02 -0.29585644648E+02  0.17199961103E+03  0.12500393479E+03 0.  0.
         24    2    1    2    0    0 -0.81715208995E+02 -0.71263864560E+02  0.45908199993E+03  0.47870554803E+03  0.81527941690E+02 0.  0.
        -11    1    5    5    0    0 -0.99066551127E+01  0.15406730031E+02  0.12104326207E+03  0.12242132346E+03  0.00000000000E+00 0.  1.
         12    1    5    5    0    0 -0.71808553882E+02 -0.86670594591E+02  0.33803873786E+03  0.35628422456E+03  0.00000000000E+00 0. -1.
        -11    1    3    3    0    0  0.42810400815E+02  0.64139718678E+01 -0.32075480898E+02  0.53876766124E+02  0.00000000000E+00 0.  1.
         12    1    3    3    0    0 -0.28560701658E+02 -0.22538655300E+02 -0.32313736749E+01  0.36525969361E+02  0.00000000000E+00 0. -1.
          5    1    4    4  501    0  0.10630091117E+03 -0.34456499170E+01 -0.37805694511E+02  0.11297396495E+03  0.47000000000E+01 0. -1.
         -5    1    4    4    0  501 -0.57573426384E+01  0.57976035411E+02  0.82200498632E+01  0.59025646087E+02  0.47000000000E+01 0. -1.
          1    1    1    2  502    0  0.30314731236E+02  0.19137776028E+02 -0.50751029898E+03  0.50877494138E+03  0.00000000000E+00 0. -1.
          1    1    1    2  503    0 -0.63392789927E+02  0.13720386470E+02  0.74334539432E+03  0.74616973276E+03  0.00000000000E+00 0. -1.
<mgrwt>
<rscale>  0 0.48144272E+02</rscale>
<asrwt>0</asrwt>
<pdfrwt beam="1">  1        2 0.19309391E+00 0.64654324E+02</pdfrwt>
<pdfrwt beam="2">  1        2 0.10044323E+00 0.35850208E+02</pdfrwt>
<totfact> 0.15361812E+02</totfact>
</mgrwt>
</event>
<event>
13    1  0.2101801E-008  0.6928742E+02  0.7546771E-02  0.1446031E+00
         -3   -1    0    0    0  501 -0.00000000000E+00  0.00000000000E+00  0.37419318643E+03  0.37419318643E+03  0.00000000000E+00 0.  1.
          2   -1    0    0  503    0  0.00000000000E+00 -0.00000000000E+00 -0.17572301984E+04  0.17572301984E+04  0.00000000000E+00 0. -1.
         24    2    1    2    0    0 -0.15239069031E+03 -0.15517276920E+03 -0.15932603700E+03  0.28134677783E+03  0.80434523296E+02 0.  0.
         25    2    1    2    0    0  0.97772361926E+02  0.29645232601E+03 -0.56825444086E+03  0.66029092677E+03  0.12501032788E+03 0.  0.
         24    2    1    2    0    0  0.50178533860E+02 -0.67709272667E+02 -0.26922041471E+03  0.29339136028E+03  0.80600420144E+02 0.  0.
        -11    1    3    3    0    0 -0.15953169122E+03 -0.13122975555E+03 -0.13729166223E+03  0.24803348516E+03  0.00000000000E+00 0.  1.
         12    1    3    3    0    0  0.71410009164E+01 -0.23943013651E+02 -0.22034374774E+02  0.33313292669E+02  0.00000000000E+00 0. -1.
        -13    1    5    5    0    0  0.69211024797E+02 -0.44878902762E+02 -0.15761021087E+03  0.17789114772E+03  0.00000000000E+00 0.  1.
         14    1    5    5    0    0 -0.19032490937E+02 -0.22830369905E+02 -0.11161020384E+03  0.11550021256E+03  0.00000000000E+00 0. -1.
          5    1    4    4  502    0  0.10601524483E+03  0.14772802943E+03 -0.36978519668E+03  0.41209948374E+03  0.47000000000E+01 0. -1.
         -5    1    4    4    0  502 -0.82428829043E+01  0.14872429658E+03 -0.19846924417E+03  0.24819144303E+03  0.47000000000E+01 0. -1.
          1    1    1    2  503    0 -0.29757232543E+02 -0.62652241296E+02 -0.63816377409E+03  0.64192195693E+03  0.00000000000E+00 0. -1.
         -4    1    1    2    0  501  0.34197027064E+02 -0.10918042846E+02  0.25192765471E+03  0.25447236299E+03  0.00000000000E+00 0.  1.
<mgrwt>
<rscale>  0 0.49872382E+02</rscale>
<asrwt>0</asrwt>
<pdfrwt beam="2">  1        2 0.25841620E+00 0.69287416E+02</pdfrwt>
<pdfrwt beam="1">  1       -3 0.55028411E-01 0.35897637E+02</pdfrwt>
<totfact> 0.23028003E+01</totfact>
</mgrwt>
</event>
<event>
13    1  0.2101801E-008  0.3801577E+02  0.7546771E-02  0.1588064E+00
          2   -1    0    0  502    0  0.00000000000E+00  0.00000000000E+00  0.95989412308E+03  0.95989412308E+03  0.00000000000E+00 0. -1.
          2   -1    0    0  503    0 -0.00000000000E+00 -0.00000000000E+00 -0.19478799226E+04  0.19478799226E+04  0.00000000000E+00 0. -1.
         24    2    1    2    0    0 -0.98678110501E+02 -0.23083661573E+02 -0.67076434234E+03  0.68342878560E+03  0.82945024608E+02 0.  0.
         25    2    1    2    0    0  0.12597042609E+03  0.27145024462E+02 -0.19616919185E+03  0.26591760884E+03  0.12499768900E+03 0.  0.
         24    2    1    2    0    0  0.20127133241E+02  0.87360954463E+01  0.87294467703E+02  0.11989955367E+03  0.79209582901E+02 0.  0.
        -11    1    5    5    0    0 -0.26861305478E+02  0.13486686209E+02  0.55027716437E+02  0.62701435495E+02  0.00000000000E+00 0.  1.
         12    1    5    5    0    0  0.46988438719E+02 -0.47505907629E+01  0.32266751266E+02  0.57198118178E+02  0.00000000000E+00 0. -1.
        -13    1    3    3    0    0 -0.49464921559E+02 -0.50761932133E+02 -0.29198602607E+03  0.30046529190E+03  0.00000000000E+00 0.  1.
         14    1    3    3    0    0 -0.49213188942E+02  0.27678270560E+02 -0.37877831627E+03  0.38296349369E+03  0.00000000000E+00 0. -1.
          5    1    4    4  501    0 -0.83213983265E+01  0.41446546162E+02 -0.31664736231E+02  0.53026478098E+02  0.47000000000E+01 0.  1.
         -5    1    4    4    0  501  0.13429182442E+03 -0.14301521700E+02 -0.16450445562E+03  0.21289113074E+03  0.47000000000E+01 0.  1.
          1    1    1    2  502    0 -0.36686182679E+02  0.99580268847E+01  0.81449268751E+03  0.81537928371E+03  0.00000000000E+00 0. -1.
          1    1    1    2  503    0 -0.10733266152E+02 -0.22755485220E+02 -0.10228394206E+04  0.10231488139E+04  0.00000000000E+00 0. -1.
<mgrwt>
<rscale>  0 0.30926830E+02</rscale>
<asrwt>0</asrwt>
<pdfrwt beam="1">  1        2 0.14116090E+00 0.38015769E+02</pdfrwt>
<pdfrwt beam="2">  1        2 0.28645293E+00 0.25159792E+02</pdfrwt>
<totfact> 0.57036287E+01</totfact>
</mgrwt>
</event>
<event>
13    1  0.2101801E-008  0.5196469E+02  0.7546771E-02  0.1446508E+00
          2   -1    0    0  502    0  0.00000000000E+00  0.00000000000E+00  0.39026101252E+04  0.39026101252E+04  0.00000000000E+00 0. -1.
          2   -1    0    0  503    0 -0.00000000000E+00 -0.00000000000E+00 -0.15730352249E+03  0.15730352249E+03  0.00000000000E+00 0. -1.
         24    2    1    2    0    0  0.41094267762E+02  0.50867129154E+02 -0.50657571794E+02  0.11508921458E+03  0.80019585484E+02 0.  0.
         25    2    1    2    0    0 -0.30511481614E+02  0.60583398889E+01  0.31240593356E+03  0.33792200564E+03  0.12500464224E+03 0.  0.
         24    2    1    2    0    0 -0.34894224106E+02 -0.56418779178E+02  0.14640713699E+03  0.17567274561E+03  0.70888491803E+02 0.  0.
        -11    1    3    3    0    0 -0.12890136818E+02 -0.58873252404E-01 -0.37582779515E+02  0.39731906691E+02  0.00000000000E+00 0.  1.
         12    1    3    3    0    0  0.53984404580E+02  0.50926002406E+02 -0.13074792279E+02  0.75357307888E+02  0.00000000000E+00 0. -1.
        -13    1    5    5    0    0 -0.53526656769E+02 -0.49044173142E+02  0.13311993655E+03  0.15162899265E+03  0.00000000000E+00 0.  1.
         14    1    5    5    0    0  0.18632432663E+02 -0.73746060353E+01  0.13287200436E+02  0.24043752963E+02  0.00000000000E+00 0. -1.
          5    1    4    4  501    0  0.99434396938E-01  0.17558669131E+02 -0.49596911719E+01  0.18841583940E+02  0.47000000000E+01 0. -1.
         -5    1    4    4    0  501 -0.30610916011E+02 -0.11500329242E+02  0.31736562473E+03  0.31908042170E+03  0.47000000000E+01 0. -1.
          1    1    1    2  502    0 -0.16627876268E+00 -0.47695280472E+02  0.33689485561E+04  0.33692861619E+04  0.00000000000E+00 0. -1.
          1    1    1    2  503    0  0.24477716721E+02  0.47188590606E+02 -0.31797452130E+02  0.61943519930E+02  0.00000000000E+00 0. -1.
<mgrwt>
<rscale>  0 0.49784390E+02</rscale>
<asrwt>0</asrwt>
<pdfrwt beam="1">  1        2 0.57391319E+00 0.47695570E+02</pdfrwt>
<pdfrwt beam="2">  1        2 0.23132874E-01 0.51964689E+02</pdfrwt>
<totfact> 0.34577938E+01</totfact>
</mgrwt>
</event>
<event>
13    1  0.2101801E-008  0.1354531E+03  0.7546771E-02  0.1283109E+00
         -1   -1    0    0    0  501 -0.00000000000E+00  0.00000000000E+00  0.58292133299E+03  0.58292133299E+03  0.00000000000E+00 0.  1.
          2   -1    0    0  503    0  0.00000000000E+00 -0.00000000000E+00 -0.18124622421E+04  0.18124622421E+04  0.00000000000E+00 0. -1.
         24    2    1    2    0    0 -0.60479925622E+02 -0.10953624972E+02  0.54157367925E+02  0.11580304895E+03  0.81850609909E+02 0.  0.
         25    2    1    2    0    0  0.69123164260E+02  0.47176274806E+02 -0.80899718230E+03  0.82286380137E+03  0.12499912760E+03 0.  0.
         24    2    1    2    0    0 -0.17178839903E+03 -0.98344928464E+02  0.79370252448E+02  0.22778480424E+03  0.80020629049E+02 0.  0.
        -13    1    3    3    0    0 -0.22195847914E+02  0.32496971129E+02  0.40154606500E+02  0.56223671353E+02  0.00000000000E+00 0.  1.
         14    1    3    3    0    0 -0.38284077707E+02 -0.43450596101E+02  0.14002761425E+02  0.59579377598E+02  0.00000000000E+00 0. -1.
        -13    1    5    5    0    0 -0.13700657410E+03 -0.99940507010E+02  0.38141849350E+02  0.17382090484E+03  0.00000000000E+00 0.  1.
         14    1    5    5    0    0 -0.34781824931E+02  0.15955785461E+01  0.41228403098E+02  0.53963899400E+02  0.00000000000E+00 0. -1.
          5    1    4    4  502    0 -0.11185315665E+02  0.45276992285E+02 -0.54151193902E+03  0.54353692370E+03  0.47000000000E+01 0.  1.
         -5    1    4    4    0  502  0.80308479926E+02  0.18992825214E+01 -0.26748524328E+03  0.27932687768E+03  0.47000000000E+01 0.  1.
          1    1    1    2  503    0 -0.45529026591E+02  0.55624681233E+02 -0.85755997375E+03  0.86056731637E+03  0.00000000000E+00 0. -1.
         -2    1    1    2    0  501  0.20867418698E+03  0.64975973971E+01  0.30348862660E+03  0.36836460411E+03  0.00000000000E+00 0.  1.
<mgrwt>
<rscale>  0 0.98674308E+02</rscale>
<asrwt>0</asrwt>
<pdfrwt beam="2">  1        2 0.26653857E+00 0.71881830E+02</pdfrwt>
<pdfrwt beam="1">  1       -1 0.85723725E-01 0.13545313E+03</pdfrwt>
<totfact> 0.19400001E+01</totfact>
</mgrwt>
</event>
<event>
13    1  0.2101801E-008  0.3782819E+02  0.7546771E-02  0.1616076E+00
          2   -1    0    0  503    0  0.00000000000E+00  0.00000000000E+00  0.29214280873E+04  0.29214280873E+04  0.00000000000E+00 0. -1.
          2   -1    0    0  502    0 -0.00000000000E+00 -0.00000000000E+00 -0.17939049259E+04  0.17939049259E+04  0.00000000000E+00 0. -1.
         24    2    1    2    0    0  0.46809793888E+03 -0.77997577949E+02 -0.59094262549E+03  0.76398630482E+03  0.96242323258E+02 0.  0.
         25    2    1    2    0    0 -0.41431490619E+03 -0.84821685998E+03  0.12213680606E+04  0.15487072428E+04  0.12500200587E+03 0.  0.
         24    2    1    2    0    0 -0.22789718502E+02  0.91859905507E+03  0.87053150681E+02  0.92646667488E+03  0.80116498778E+02 0.  0.
        -11    1    5    5    0    0 -0.36913933520E-01  0.54206373836E+03  0.14052450457E+02  0.54224585676E+03  0.00000000000E+00 0.  1.
         12    1    5    5    0    0 -0.22752804569E+02  0.37653531671E+03  0.73000700225E+02  0.38422081812E+03  0.00000000000E+00 0. -1.
        -11    1    3    3    0    0  0.36766275935E+03 -0.94257678805E+02 -0.42968318476E+03  0.57331322494E+03  0.00000000000E+00 0.  1.
         12    1    3    3    0    0  0.10043517953E+03  0.16260100856E+02 -0.16125944073E+03  0.19067307988E+03  0.00000000000E+00 0. -1.
          5    1    4    4  501    0 -0.21358963870E+03 -0.39691305494E+03  0.68027476131E+03  0.81606148532E+03  0.47000000000E+01 0. -1.
         -5    1    4    4    0  501 -0.20072526748E+03 -0.45130380504E+03  0.54109329927E+03  0.73264575749E+03  0.47000000000E+01 0. -1.
          1    1    1    2  502    0 -0.25225492361E+02  0.28194700852E+02 -0.53227154105E+03  0.53361433642E+03  0.00000000000E+00 0. -1.
          1    1    1    2  503    0 -0.57678218241E+01 -0.20579317995E+02  0.94231611661E+03  0.94255845427E+03  0.00000000000E+00 0. -1.
<mgrwt>
<rscale>  0 0.28433715E+02</rscale>
<asrwt>0</asrwt>
<pdfrwt beam="1">  1        2 0.42962178E+00 0.21372321E+02</pdfrwt>
<pdfrwt beam="2">  1        2 0.26380955E+00 0.37828187E+02</pdfrwt>
<totfact> 0.81432668E+00</totfact>
</mgrwt>
</event>
<event>
13    1  0.2101801E-008  0.1762975E+03  0.7546771E-02  0.1222947E+00
          4   -1    0    0  503    0 -0.00000000000E+00  0.00000000000E+00  0.19596003903E+04  0.19596003903E+04  0.00000000000E+00 0. -1.
          2   -1    0    0  502    0  0.00000000000E+00 -0.00000000000E+00 -0.90230761637E+03  0.90230761637E+03  0.00000000000E+00 0. -1.
         24    2    1    2    0    0  0.24358955635E+02 -0.77823566967E+02  0.46528908382E+03  0.47935231336E+03  0.81454542561E+02 0.  0.
         25    2    1    2    0    0 -0.12551826999E+03  0.43195779265E+03  0.18309946370E+03  0.50147911453E+03  0.12495406346E+03 0.  0.
         24    2    1    2    0    0 -0.63052289429E+02 -0.14431027847E+03 -0.11096999945E+03  0.20903264884E+03  0.81112636666E+02 0.  0.
        -11    1    3    3    0    0 -0.10786831195E+02  0.11192532665E+02  0.31437811079E+02  0.35070849436E+02  0.00000000000E+00 0.  1.
         12    1    3    3    0    0  0.35145786830E+02 -0.89016099632E+02  0.43385127274E+03  0.44428146392E+03  0.00000000000E+00 0. -1.
        -13    1    5    5    0    0 -0.65650899894E+01 -0.83145672645E+01  0.12836268775E+02  0.16643384014E+02  0.00000000000E+00 0.  1.
         14    1    5    5    0    0 -0.56487199440E+02 -0.13599571121E+03 -0.12380626823E+03  0.19238926482E+03  0.00000000000E+00 0. -1.
          5    1    4    4  501    0 -0.74356728347E+02  0.33035982576E+03  0.18834627166E+03  0.38750863936E+03  0.47000000000E+01 0.  1.
         -5    1    4    4    0  501 -0.51161541639E+02  0.10159796689E+03 -0.52468079584E+01  0.11397047518E+03  0.47000000000E+01 0.  1.
          1    1    1    2  502    0  0.12425975145E+03 -0.11764284819E+03 -0.56099710271E+03  0.58651349073E+03  0.00000000000E+00 0. -1.
          3    1    1    2  503    0  0.39951852329E+02 -0.92181099026E+02  0.10808713286E+04  0.10855304392E+04  0.00000000000E+00 0. -1.
<mgrwt>
<rscale>  0 0.13308638E+03</rscale>
<asrwt>0</asrwt>
<pdfrwt beam="2">  1        2 0.13269230E+00 0.17629752E+03</pdfrwt>
<pdfrwt beam="1">  1        4 0.28817653E+00 0.10046644E+03</pdfrwt>
<totfact> 0.78330934E-01</totfact>
</mgrwt>
</event>
<event>
13    1  0.2101801E-008  0.1057118E+03  0.7546771E-02  0.1305879E+00
          2   -1    0    0  502    0  0.00000000000E+00  0.00000000000E+00  0.24379085379E+04  0.24379085379E+04  0.00000000000E+00 0. -1.
          2   -1    0    0  503    0 -0.00000000000E+00 -0.00000000000E+00 -0.49338660794E+03  0.49338660794E+03  0.00000000000E+00 0. -1.
         24    2    1    2    0    0 -0.67713775670E+02 -0.74923621077E+02  0.23321937056E+03  0.26409344244E+03  0.71800885277E+02 0.  0.
         25    2    1    2    0    0  0.10598136219E+03  0.11364634060E+03  0.22231024290E+03  0.29865533178E+03  0.12500249294E+03 0.  0.
         24    2    1    2    0    0  0.11131692967E+01  0.27482341370E+02  0.56912709158E+01  0.85769809139E+02  0.81040430416E+02 0.  0.
        -13    1    3    3    0    0 -0.77419443163E+02 -0.59534981111E+02  0.22246596992E+03  0.24295944502E+03  0.00000000000E+00 0.  1.
         14    1    3    3    0    0  0.97056674933E+01 -0.15388639966E+02  0.10753400642E+02  0.21133997418E+02  0.00000000000E+00 0. -1.
        -13    1    5    5    0    0  0.22143739465E+02 -0.14574729233E+01 -0.28610151691E+02  0.36207874897E+02  0.00000000000E+00 0.  1.
         14    1    5    5    0    0 -0.21030570168E+02  0.28939814293E+02  0.34301422607E+02  0.49561934242E+02  0.00000000000E+00 0. -1.
          5    1    4    4  501    0  0.57925312652E+02  0.22565503786E+02  0.10678196009E+02  0.63250752383E+02  0.47000000000E+01 0. -1.
         -5    1    4    4    0  501  0.48056049533E+02  0.91080836817E+02  0.21163204689E+03  0.23540457940E+03  0.47000000000E+01 0. -1.
          1    1    1    2  502    0 -0.10357683527E+03 -0.28344192456E+02  0.18780177147E+04  0.18810853491E+04  0.00000000000E+00 0. -1.
          1    1    1    2  503    0  0.64196079454E+02 -0.37860868440E+02 -0.39471666912E+03  0.40169121332E+03  0.00000000000E+00 0. -1.
<mgrwt>
<rscale>  0 0.88761501E+02</rscale>
<asrwt>0</asrwt>
<pdfrwt beam="1">  1        2 0.35851596E+00 0.10571183E+03</pdfrwt>
<pdfrwt beam="2">  1        2 0.72556855E-01 0.74529068E+02</pdfrwt>
<totfact> 0.58488920E+01</totfact>
</mgrwt>
</event>
<event>
13    1  0.2101801E-008  0.6426702E+02  0.7546771E-02  0.1385698E+00
          2   -1    0    0  503    0  0.00000000000E+00  0.00000000000E+00  0.35819993864E+03  0.35819993864E+03  0.00000000000E+00 0. -1.
          2   -1    0    0  502    0 -0.00000000000E+00 -0.00000000000E+00 -0.31235073488E+04  0.31235073488E+04  0.00000000000E+00 0. -1.
         24    2    1    2    0    0 -0.13010058747E+03 -0.46351790723E+02 -0.87015604734E+03  0.88472953018E+03  0.80623467381E+02 0.  0.
         25    2    1    2    0    0  0.26978867944E+03  0.91815873059E+02 -0.10864814650E+04  0.11301706459E+04  0.12501051551E+03 0.  0.
         24    2    1    2    0    0 -0.78306970849E+02  0.11570744975E+01  0.98091954072E+02  0.15041747219E+03  0.82885849101E+02 0.  0.
        -13    1    5    5    0    0 -0.38931574857E+02  0.14174268043E+02 -0.26066204789E+01  0.41513514254E+02  0.00000000000E+00 0.  1.
         14    1    5    5    0    0 -0.39375395993E+02 -0.13017193546E+02  0.10069857455E+03  0.10890395794E+03  0.00000000000E+00 0. -1.
        -13    1    3    3    0    0 -0.39098874702E+02  0.13153948519E+02 -0.12372690954E+03  0.13042276070E+03  0.00000000000E+00 0.  1.
         14    1    3    3    0    0 -0.91001712767E+02 -0.59505739242E+02 -0.74642913780E+03  0.75430676948E+03  0.00000000000E+00 0. -1.
          5    1    4    4  501    0  0.50228927977E+02  0.38668774004E+02 -0.10273163136E+03  0.12080603201E+03  0.47000000000E+01 0.  1.
         -5    1    4    4    0  501  0.21955975146E+03  0.53147099055E+02 -0.98374983366E+03  0.10093646139E+04  0.47000000000E+01 0.  1.
          1    1    1    2  502    0  0.11255619061E+01 -0.61726820256E+02 -0.11056456942E+04  0.11073679913E+04  0.00000000000E+00 0. -1.
          1    1    1    2  503    0 -0.62506683025E+02  0.15105663423E+02  0.19888384233E+03  0.20902164776E+03  0.00000000000E+00 0. -1.
<mgrwt>
<rscale>  0 0.62989352E+02</rscale>
<asrwt>0</asrwt>
<pdfrwt beam="1">  1        2 0.52676462E-01 0.64267024E+02</pdfrwt>
<pdfrwt beam="2">  1        2 0.45933931E+00 0.61737081E+02</pdfrwt>
<totfact> 0.39448151E+01</totfact>
</mgrwt>
</event>
<event>
13    1  0.2101801E-008  0.1295334E+03  0.7546771E-02  0.1293764E+00
          2   -1    0    0  503    0  0.00000000000E+00  0.00000000000E+00  0.98339041087E+03  0.98339041087E+03  0.00000000000E+00 0. -1.
          2   -1    0    0  502    0 -0.00000000000E+00 -0.00000000000E+00 -0.12780486728E+04  0.12780486728E+04  0.00000000000E+00 0. -1.
         24    2    1    2    0    0  0.89454799029E+02 -0.33363835224E+01 -0.84540301741E+03  0.85382754897E+03  0.79384690039E+02 0.  0.
         25    2    1    2    0    0 -0.99935038680E+02 -0.19803389130E+03  0.25702740163E+03  0.36179240806E+03  0.12500490905E+03 0.  0.
         24    2    1    2    0    0 -0.61326146946E+02  0.83925993777E+02  0.81365439415E+02  0.15462094286E+03  0.80516038822E+02 0.  0.
        -11    1    5    5    0    0 -0.21504247454E+01  0.53719373646E+02  0.59139316076E+01  0.54086689847E+02  0.00000000000E+00 0.  1.
         12    1    5    5    0    0 -0.59175722200E+02  0.30206620132E+02  0.75451507807E+02  0.10053425301E+03  0.00000000000E+00 0. -1.
        -13    1    3    3    0    0  0.50769584303E+02 -0.34812588145E+02 -0.30643562471E+03  0.31255760921E+03  0.00000000000E+00 0.  1.
         14    1    3    3    0    0  0.38685214725E+02  0.31476204622E+02 -0.53896739269E+03  0.54126993976E+03  0.00000000000E+00 0. -1.
          5    1    4    4  501    0 -0.24903976968E+01  0.90432781120E+01  0.56524917483E+02  0.57490340546E+02  0.47000000000E+01 0.  1.
         -5    1    4    4    0  501 -0.97444640983E+02 -0.20707716941E+03  0.20050248415E+03  0.30430206752E+03  0.47000000000E+01 0.  1.
          1    1    1    2  502    0 -0.36833361488E+02  0.57173473480E+02 -0.32890632537E+03  0.33586436765E+03  0.00000000000E+00 0. -1.
          1    1    1    2  503    0  0.10863974808E+03  0.60270807561E+02  0.54125823983E+03  0.55533381609E+03  0.00000000000E+00 0. -1.
<mgrwt>
<rscale>  0 0.93859997E+02</rscale>
<asrwt>0</asrwt>
<pdfrwt beam="1">  1        2 0.14461624E+00 0.12953335E+03</pdfrwt>
<pdfrwt beam="2">  1        2 0.18794833E+00 0.68011048E+02</pdfrwt>
<totfact> 0.98256719E+01</totfact>
</mgrwt>
</event>
<event>
13    1  0.2101801E-008  0.7270030E+02  0.7546771E-02  0.1389341E+00
          2   -1    0    0  502    0  0.00000000000E+00  0.00000000000E+00  0.89732257465E+03  0.89732257465E+03  0.00000000000E+00 0. -1.
          2   -1    0    0  503    0 -0.00000000000E+00 -0.00000000000E+00 -0.10460649151E+04  0.10460649151E+04  0.00000000000E+00 0. -1.
         24    2    1    2    0    0  0.54462925605E+02 -0.55241608886E+02 -0.14528535809E+03  0.18276057979E+03  0.79219622766E+02 0.  0.
         25    2    1    2    0    0  0.31003900102E+02 -0.10573809896E+03 -0.20615194011E+03  0.26507670695E+03  0.12500100306E+03 0.  0.
         24    2    1    2    0    0 -0.58405366551E+02  0.14120404560E+03  0.50087476778E+03  0.53010068638E+03  0.82349470923E+02 0.  0.
        -11    1    3    3    0    0  0.66670158626E+02 -0.17813733985E+02 -0.11021490003E+03  0.13003677695E+03  0.00000000000E+00 0.  1.
         12    1    3    3    0    0 -0.12207233020E+02 -0.37427874901E+02 -0.35070458060E+02  0.52723802842E+02  0.00000000000E+00 0. -1.
        -13    1    5    5    0    0  0.99002449796E+01 -0.38767919314E+01  0.60755074386E+02  0.61678387057E+02  0.00000000000E+00 0.  1.
         14    1    5    5    0    0 -0.68305611531E+02  0.14508083753E+03  0.44011969339E+03  0.46842229932E+03  0.00000000000E+00 0. -1.
          5    1    4    4  501    0  0.23861371291E+01 -0.12678449014E+03 -0.13418733467E+03  0.18468441022E+03  0.47000000000E+01 0.  1.
         -5    1    4    4    0  501  0.28617762973E+02  0.21046391178E+02 -0.71964605435E+02  0.80392296737E+02  0.47000000000E+01 0.  1.
          1    1    1    2  502    0  0.45429326410E+02  0.27289450861E+02  0.32940826588E+03  0.33364403704E+03  0.00000000000E+00 0. -1.
          1    1    1    2  503    0 -0.72490785566E+02 -0.75137886165E+01 -0.62758807588E+03  0.63180547956E+03  0.00000000000E+00 0. -1.
<mgrwt>
<rscale>  0 0.62070920E+02</rscale>
<asrwt>0</asrwt>
<pdfrwt beam="1">  1        2 0.13195920E+00 0.52995640E+02</pdfrwt>
<pdfrwt beam="2">  1        2 0.15383308E+00 0.72700305E+02</pdfrwt>
<totfact> 0.15182164E+02</totfact>
</mgrwt>
</event>
<event>
13    1  0.2101801E-008  0.1016745E+03  0.7546771E-02  0.1329434E+00
          2   -1    0    0  503    0  0.00000000000E+00  0.00000000000E+00  0.68995562676E+03  0.68995562676E+03  0.00000000000E+00 0. -1.
          2   -1    0    0  502    0 -0.00000000000E+00 -0.00000000000E+00 -0.10175184976E+04  0.10175184976E+04  0.00000000000E+00 0. -1.
         24    2    1    2    0    0  0.12229164634E+03  0.84581903554E+02 -0.17919865001E+03  0.24344768351E+03  0.71030087065E+02 0.  0.
         25    2    1    2    0    0 -0.31904127917E+03 -0.67280288671E+02  0.99645223171E+02  0.36313683976E+03  0.12500087533E+03 0.  0.
         24    2    1    2    0    0  0.11414526512E+03 -0.54882973472E+02 -0.14876656415E+03  0.21100395830E+03  0.79686244010E+02 0.  0.
        -11    1    5    5    0    0  0.11382698820E+03 -0.70291763200E+02 -0.13801311495E+03  0.19221117323E+03  0.00000000000E+00 0.  1.
         12    1    5    5    0    0  0.31827691792E+00  0.15408789728E+02 -0.10753449201E+02  0.18792785073E+02  0.00000000000E+00 0. -1.
        -13    1    3    3    0    0  0.24283970266E+02  0.58534835436E+02 -0.69796081897E+02  0.94273703755E+02  0.00000000000E+00 0.  1.
         14    1    3    3    0    0  0.98007676073E+02  0.26047068118E+02 -0.10940256811E+03  0.14917397976E+03  0.00000000000E+00 0. -1.
          5    1    4    4  501    0 -0.30751982108E+03 -0.29723183236E+02  0.81177743406E+02  0.31947429318E+03  0.47000000000E+01 0.  1.
         -5    1    4    4    0  501 -0.11521458093E+02 -0.37557105435E+02  0.18467479764E+02  0.43662546583E+02  0.47000000000E+01 0.  1.
          1    1    1    2  502    0  0.99626282342E+02 -0.22799265269E+02 -0.48673448218E+03  0.49734862901E+03  0.00000000000E+00 0. -1.
          1    1    1    2  503    0 -0.17021914626E+02  0.60380623858E+02  0.38749160233E+03  0.39253701378E+03  0.00000000000E+00 0. -1.
<mgrwt>
<rscale>  0 0.79865249E+02</rscale>
<asrwt>0</asrwt>
<pdfrwt beam="1">  1        2 0.10146406E+00 0.62734084E+02</pdfrwt>
<pdfrwt beam="2">  1        2 0.14963507E+00 0.10167452E+03</pdfrwt>
<totfact> 0.20947963E+02</totfact>
</mgrwt>
</event>
<event>
13    1  0.2101801E-008  0.1148480E+03  0.7546771E-02  0.1290155E+00
         -1   -1    0    0    0  501 -0.00000000000E+00  0.00000000000E+00  0.14440160063E+04  0.14440160063E+04  0.00000000000E+00 0.  1.
          2   -1    0    0  503    0  0.00000000000E+00 -0.00000000000E+00 -0.28814647461E+04  0.28814647461E+04  0.00000000000E+00 0. -1.
         24    2    1    2    0    0  0.20253149552E+02  0.45521852472E+02  0.69002323674E+02  0.11611502307E+03  0.78987016604E+02 0.  0.
         25    2    1    2    0    0 -0.59233237567E+02 -0.60222670761E+02 -0.92634545684E+03  0.93855430431E+03  0.12503171687E+03 0.  0.
         24    2    1    2    0    0  0.44187734914E+02 -0.20175948298E+02 -0.24195445727E+03  0.25932387165E+03  0.79669857579E+02 0.  0.
        -13    1    5    5    0    0 -0.22992791903E+02 -0.75403890628E+01 -0.49687875785E+02  0.55266725493E+02  0.00000000000E+00 0.  1.
         14    1    5    5    0    0  0.67180526817E+02 -0.12635559235E+02 -0.19226658149E+03  0.20405714616E+03  0.00000000000E+00 0. -1.
        -13    1    3    3    0    0 -0.18862596925E+02  0.36386470062E+02  0.60357264886E+01  0.41427077626E+02  0.00000000000E+00 0.  1.
         14    1    3    3    0    0  0.39115746478E+02  0.91353824093E+01  0.62966597185E+02  0.74687945449E+02  0.00000000000E+00 0. -1.
          5    1    4    4  502    0 -0.77353299397E+02 -0.34282782989E+02 -0.30983096024E+03  0.32121045447E+03  0.47000000000E+01 0. -1.
         -5    1    4    4    0  502  0.18120061829E+02 -0.25939887771E+02 -0.61651449659E+03  0.61734384984E+03  0.47000000000E+01 0. -1.
          1    1    1    2  503    0 -0.70474388696E+02 -0.36435807204E+02 -0.16721297440E+04  0.16740107791E+04  0.00000000000E+00 0. -1.
         -2    1    1    2    0  501  0.65266741797E+02  0.71312573791E+02  0.13339785947E+04  0.13374767743E+04  0.00000000000E+00 0.  1.
<mgrwt>
<rscale>  0 0.95454644E+02</rscale>
<asrwt>0</asrwt>
<pdfrwt beam="2">  1        2 0.42374482E+00 0.79336042E+02</pdfrwt>
<pdfrwt beam="1">  1       -1 0.21235529E+00 0.11484804E+03</pdfrwt>
<totfact> 0.59701900E-01</totfact>
</mgrwt>
</event>
<event>
13    1  0.2101801E-008  0.1504775E+03  0.7546771E-02  0.1276563E+00
          2   -1    0    0  503    0  0.00000000000E+00  0.00000000000E+00  0.10078801099E+04  0.10078801099E+04  0.00000000000E+00 0. -1.
          2   -1    0    0  502    0 -0.00000000000E+00 -0.00000000000E+00 -0.23790109479E+04  0.23790109479E+04  0.00000000000E+00 0. -1.
         24    2    1    2    0    0 -0.46697093650E+02  0.33503303324E+02 -0.11050268390E+04  0.11095189893E+04  0.81516764066E+02 0.  0.
         25    2    1    2    0    0  0.29529416970E+03  0.97902860703E+02  0.25883720255E+03  0.42356308613E+03  0.12500149485E+03 0.  0.
         24    2    1    2    0    0 -0.38984944965E+02  0.35314430824E+02  0.75492739310E+01  0.98900792977E+02  0.83411272358E+02 0.  0.
        -11    1    3    3    0    0  0.11146553420E+01  0.41729901616E+02 -0.75410098264E+03  0.75525553237E+03  0.00000000000E+00 0.  1.
         12    1    3    3    0    0 -0.47811748992E+02 -0.82265982927E+01 -0.35092585634E+03  0.35426345692E+03  0.00000000000E+00 0. -1.
        -13    1    5    5    0    0  0.24834478182E+02  0.19498291045E+02 -0.49887810326E+01  0.31965959964E+02  0.00000000000E+00 0.  1.
         14    1    5    5    0    0 -0.63819423146E+02  0.15816139778E+02  0.12538054964E+02  0.66934833013E+02  0.00000000000E+00 0. -1.
          5    1    4    4  501    0  0.16376895711E+03  0.36210180214E+01  0.18022567920E+03  0.24359139666E+03  0.47000000000E+01 0.  1.
         -5    1    4    4    0  501  0.13152521259E+03  0.94281842681E+02  0.78611523349E+02  0.17997168947E+03  0.47000000000E+01 0.  1.
          1    1    1    2  502    0 -0.16474708964E+03 -0.11447680268E+03 -0.11329186272E+04  0.11505438530E+04  0.00000000000E+00 0. -1.
          1    1    1    2  503    0 -0.44865041444E+02 -0.52243792172E+02  0.60042815163E+03  0.60436433634E+03  0.00000000000E+00 0. -1.
<mgrwt>
<rscale>  0 0.10179648E+03</rscale>
<asrwt>0</asrwt>
<pdfrwt beam="1">  1        2 0.14821766E+00 0.68864256E+02</pdfrwt>
<pdfrwt beam="2">  1        2 0.34985455E+00 0.15047752E+03</pdfrwt>
<totfact> 0.26325348E+01</totfact>
</mgrwt>
</event>
<event>
13    1  0.2101801E-008  0.8992905E+02  0.7546771E-02  0.1324100E+00
          2   -1    0    0  503    0  0.00000000000E+00  0.00000000000E+00  0.16707725549E+04  0.16707725549E+04  0.00000000000E+00 0. -1.
          2   -1    0    0  502    0 -0.00000000000E+00 -0.00000000000E+00 -0.84226996225E+03  0.84226996225E+03  0.00000000000E+00 0. -1.
         24    2    1    2    0    0  0.93089281990E+02  0.10693262877E+03 -0.55588451530E+02  0.17378337098E+03  0.83728027380E+02 0.  0.
         25    2    1    2    0    0  0.22024474450E+02 -0.15095381396E+03  0.82652770465E+03  0.84973234597E+03  0.12499952727E+03 0.  0.
         24    2    1    2    0    0  0.29635208982E+02 -0.47295326866E+01  0.11810639778E+03  0.14605473431E+03  0.80512422177E+02 0.  0.
        -11    1    3    3    0    0  0.62201937661E+02  0.47558232895E+02 -0.70333425683E+02  0.10525045051E+03  0.00000000000E+00 0.  1.
         12    1    3    3    0    0  0.30887344329E+02  0.59374395872E+02  0.14744974153E+02  0.68532920466E+02  0.00000000000E+00 0. -1.
        -13    1    5    5    0    0  0.68047116074E+00  0.35511335694E+02  0.39492848818E+02  0.53114998932E+02  0.00000000000E+00 0.  1.
         14    1    5    5    0    0  0.28954737821E+02 -0.40240868381E+02  0.78613548966E+02  0.92939735374E+02  0.00000000000E+00 0. -1.
          5    1    4    4  501    0  0.10079516084E+02 -0.73356534462E+02  0.67446003314E+03  0.67852870544E+03  0.47000000000E+01 0. -1.
         -5    1    4    4    0  501  0.11944958366E+02 -0.77597279500E+02  0.15206767150E+03  0.17120364054E+03  0.47000000000E+01 0. -1.
          1    1    1    2  502    0 -0.74126897565E+02 -0.57927512828E+01 -0.69691719411E+03  0.70087226251E+03  0.00000000000E+00 0. -1.
          1    1    1    2  503    0 -0.70622067857E+02  0.54543469164E+02  0.63637413589E+03  0.64259980339E+03  0.00000000000E+00 0. -1.
<mgrwt>
<rscale>  0 0.81770932E+02</rscale>
<asrwt>0</asrwt>
<pdfrwt beam="1">  1        2 0.24570184E+00 0.89929053E+02</pdfrwt>
<pdfrwt beam="2">  1        2 0.12386323E+00 0.74352894E+02</pdfrwt>
<totfact> 0.76742202E+01</totfact>
</mgrwt>
</event>
<event>
13    1  0.2101801E-008  0.1517599E+03  0.7546771E-02  0.1263601E+00
          2   -1    0    0  503    0  0.00000000000E+00  0.00000000000E+00  0.11824553347E+04  0.11824553347E+04  0.00000000000E+00 0. -1.
         -3   -1    0    0    0  501 -0.00000000000E+00 -0.00000000000E+00 -0.12701333989E+04  0.12701333989E+04  0.00000000000E+00 0.  1.
         24    2    1    2    0    0 -0.57838790810E+02 -0.38679627518E+02 -0.47673423890E+03  0.48847031284E+03  0.80537399225E+02 0.  0.
         25    2    1    2    0    0  0.19348072504E+03 -0.11887478916E+03  0.22167297499E+03  0.34107566419E+03  0.12501077715E+03 0.  0.
         24    2    1    2    0    0 -0.64473586402E+02  0.49759047777E+02  0.53070014324E+02  0.12566061485E+03  0.79632641077E+02 0.  0.
        -11    1    3    3    0    0 -0.14716619735E+02 -0.57411534820E+02 -0.27860531307E+03  0.28483957537E+03  0.00000000000E+00 0.  1.
         12    1    3    3    0    0 -0.43122171075E+02  0.18731907302E+02 -0.19812892583E+03  0.20363073746E+03  0.00000000000E+00 0. -1.
        -13    1    5    5    0    0 -0.78238220107E+02  0.19872365113E+02  0.41626109650E+02  0.90823251347E+02  0.00000000000E+00 0.  1.
         14    1    5    5    0    0  0.13764633705E+02  0.29886682664E+02  0.11443904674E+02  0.34837363503E+02  0.00000000000E+00 0. -1.
          5    1    4    4  502    0  0.17377824864E+03 -0.40822377601E+02  0.15138384960E+03  0.23410362264E+03  0.47000000000E+01 0. -1.
         -5    1    4    4    0  502  0.19702476400E+02 -0.78052411554E+02  0.70289125385E+02  0.10697204155E+03  0.47000000000E+01 0. -1.
          1    1    1    2  503    0  0.42835833844E+02 -0.64464670712E+02  0.78848441726E+03  0.79227411840E+03  0.00000000000E+00 0. -1.
         -4    1    1    2    0  501 -0.11400418167E+03  0.17226003961E+03 -0.67417123187E+03  0.70510802333E+03  0.00000000000E+00 0.  1.
<mgrwt>
<rscale>  0 0.10837923E+03</rscale>
<asrwt>0</asrwt>
<pdfrwt beam="1">  1        2 0.17389049E+00 0.77398982E+02</pdfrwt>
<pdfrwt beam="2">  1       -3 0.18678432E+00 0.15175985E+03</pdfrwt>
<totfact> 0.28445162E+00</totfact>
</mgrwt>
</event>
<event>
13    1  0.2101801E-008  0.5910929E+02  0.7546771E-02  0.1490275E+00
          2   -1    0    0  502    0  0.00000000000E+00  0.00000000000E+00  0.57227484786E+03  0.57227484786E+03  0.00000000000E+00 0. -1.
          2   -1    0    0  503    0 -0.00000000000E+00 -0.00000000000E+00 -0.21338891460E+04  0.21338891460E+04  0.00000000000E+00 0. -1.
         24    2    1    2    0    0 -0.37239738516E+03 -0.69165907752E+02 -0.19253542842E+03  0.43224919688E+03  0.79408700613E+02 0.  0.
         25    2    1    2    0    0  0.42246973431E+03  0.73596656000E+02 -0.21626039266E+03  0.49627531527E+03  0.12499394758E+03 0.  0.
         24    2    1    2    0    0 -0.78723596721E+02 -0.46244670090E+01  0.11227680020E+03  0.14922442910E+03  0.58677593677E+02 0.  0.
        -13    1    5    5    0    0 -0.38891630610E+02 -0.14703441301E+02  0.96741796803E+02  0.10529826858E+03  0.00000000000E+00 0.  1.
         14    1    5    5    0    0 -0.39831966111E+02  0.10078974292E+02  0.15535003400E+02  0.43926160516E+02  0.00000000000E+00 0. -1.
        -13    1    3    3    0    0 -0.17046973410E+02 -0.13653084195E+02  0.42847411726E+01  0.22256797106E+02  0.00000000000E+00 0.  1.
         14    1    3    3    0    0 -0.35535041175E+03 -0.55512823556E+02 -0.19682016960E+03  0.40999239977E+03  0.00000000000E+00 0. -1.
          5    1    4    4  501    0  0.22115567666E+03  0.49921798220E+02 -0.45715463276E+02  0.23133095954E+03  0.47000000000E+01 0.  1.
         -5    1    4    4    0  501  0.20131405765E+03  0.23674857780E+02 -0.17054492938E+03  0.26494435574E+03  0.47000000000E+01 0.  1.
          1    1    1    2  502    0 -0.30351706602E+02 -0.40668074106E+01  0.17975976581E+03  0.18234949526E+03  0.00000000000E+00 0. -1.
          1    1    1    2  503    0  0.59002954173E+02  0.42605261716E+01 -0.14448550431E+04  0.14460655573E+04  0.00000000000E+00 0. -1.
<mgrwt>
<rscale>  0 0.42545279E+02</rscale>
<asrwt>0</asrwt>
<pdfrwt beam="1">  1        2 0.84158068E-01 0.30622949E+02</pdfrwt>
<pdfrwt beam="2">  1        2 0.31380722E+00 0.59109289E+02</pdfrwt>
<totfact> 0.76134343E+01</totfact>
</mgrwt>
</event>
<event>
13    1  0.2101801E-008  0.6816640E+02  0.7546771E-02  0.1400436E+00
          2   -1    0    0  502    0  0.00000000000E+00  0.00000000000E+00  0.20895013661E+04  0.20895013661E+04  0.00000000000E+00 0. -1.
          2   -1    0    0  503    0 -0.00000000000E+00 -0.00000000000E+00 -0.29158581305E+04  0.29158581305E+04  0.00000000000E+00 0. -1.
         24    2    1    2    0    0  0.19510200304E+01  0.16046130001E+02 -0.19257574793E+04  0.19274010791E+04  0.77921536972E+02 0.  0.
         25    2    1    2    0    0 -0.11533237615E+03  0.10376749792E+03 -0.43519579709E+03  0.47863233377E+03  0.12499711403E+03 0.  0.
         24    2    1    2    0    0  0.70598481515E+02 -0.37326938130E+02  0.38344008661E+03  0.40011369511E+03  0.81775443086E+02 0.  0.
        -11    1    5    5    0    0  0.86050790587E+02 -0.25718605182E+02  0.25781318510E+03  0.27300883433E+03  0.00000000000E+00 0.  1.
         12    1    5    5    0    0 -0.15452309072E+02 -0.11608332948E+02  0.12562690152E+03  0.12710486078E+03  0.00000000000E+00 0. -1.
        -13    1    3    3    0    0  0.34357828061E+02 -0.11549203579E+02 -0.10204424597E+04  0.10210860189E+04  0.00000000000E+00 0.  1.
         14    1    3    3    0    0 -0.32406808030E+02  0.27595333580E+02 -0.90531501959E+03  0.90631506019E+03  0.00000000000E+00 0. -1.
          5    1    4    4  501    0 -0.13382946851E+02  0.36394102675E+02 -0.16429144525E+02  0.42375001661E+02  0.47000000000E+01 0.  1.
         -5    1    4    4    0  501 -0.10194942930E+03  0.67373395243E+02 -0.41876665256E+03  0.43625733211E+03  0.47000000000E+01 0.  1.
          1    1    1    2  502    0 -0.68275509824E+01 -0.67820803631E+02  0.16732120024E+04  0.16745998572E+04  0.00000000000E+00 0. -1.
          1    1    1    2  503    0  0.49610425584E+02 -0.14665886158E+02 -0.52205557703E+03  0.52461253135E+03  0.00000000000E+00 0. -1.
<mgrwt>
<rscale>  0 0.59383824E+02</rscale>
<asrwt>0</asrwt>
<pdfrwt beam="1">  1        2 0.30727962E+00 0.68166396E+02</pdfrwt>
<pdfrwt beam="2">  1        2 0.42880266E+00 0.51732799E+02</pdfrwt>
<totfact> 0.47926307E+00</totfact>
</mgrwt>
</event>
<event>
13    1  0.2101801E-008  0.1270576E+03  0.7546771E-02  0.1299011E+00
          2   -1    0    0  502    0  0.00000000000E+00  0.00000000000E+00  0.21459575684E+04  0.21459575684E+04  0.00000000000E+00 0. -1.
          2   -1    0    0  503    0 -0.00000000000E+00 -0.00000000000E+00 -0.12103452425E+04  0.12103452425E+04  0.00000000000E+00 0. -1.
         24    2    1    2    0    0  0.27451149394E+02 -0.20146354424E+02 -0.75911899960E+03  0.76429415746E+03  0.82002819246E+02 0.  0.
         25    2    1    2    0    0  0.22310526501E+03 -0.10102790912E+03  0.51694496916E+03  0.58552455781E+03  0.12499723581E+03 0.  0.
         24    2    1    2    0    0 -0.59278548356E+02 -0.69494685457E+02  0.13266089935E+03  0.17871734884E+03  0.77443650206E+02 0.  0.
        -11    1    5    5    0    0  0.74847001053E+01  0.12160262990E+02  0.15937666894E+02  0.21398643828E+02  0.00000000000E+00 0.  1.
         12    1    5    5    0    0 -0.66763248461E+02 -0.81654948447E+02  0.11672323246E+03  0.15731870501E+03  0.00000000000E+00 0. -1.
        -13    1    3    3    0    0 -0.96281392046E+01 -0.95343663916E+01 -0.61363990323E+03  0.61378948838E+03  0.00000000000E+00 0.  1.
         14    1    3    3    0    0  0.37079288598E+02 -0.10611988033E+02 -0.14547909637E+03  0.15050466908E+03  0.00000000000E+00 0. -1.
          5    1    4    4  501    0  0.27260071591E+02 -0.49009972475E+02  0.21214790148E+03  0.21948555990E+03  0.47000000000E+01 0. -1.
         -5    1    4    4    0  501  0.19584519342E+03 -0.52017936644E+02  0.30479706768E+03  0.36603899790E+03  0.47000000000E+01 0. -1.
          1    1    1    2  502    0 -0.28174670800E+02  0.59733549560E+02  0.14076683160E+04  0.14092168026E+04  0.00000000000E+00 0. -1.
          1    1    1    2  503    0 -0.16310319525E+03  0.13093539944E+03 -0.36254285899E+03  0.41854994413E+03  0.00000000000E+00 0. -1.
<mgrwt>
<rscale>  0 0.91605070E+02</rscale>
<asrwt>0</asrwt>
<pdfrwt beam="1">  1        2 0.31558200E+00 0.66044750E+02</pdfrwt>
<pdfrwt beam="2">  1        2 0.17799195E+00 0.12705762E+03</pdfrwt>
<totfact> 0.28215619E+01</totfact>
</mgrwt>
</event>
<event>
13    1  0.2101801E-008  0.1113849E+03  0.7546771E-02  0.1329898E+00
          2   -1    0    0  503    0  0.00000000000E+00  0.00000000000E+00  0.58684030504E+03  0.58684030504E+03  0.00000000000E+00 0. -1.
          2   -1    0    0  502    0 -0.00000000000E+00 -0.00000000000E+00 -0.75701602450E+03  0.75701602450E+03  0.00000000000E+00 0. -1.
         24    2    1    2    0    0 -0.77895666147E+02 -0.13083986992E+03 -0.12366646180E+03  0.21248514583E+03  0.81668458168E+02 0.  0.
         25    2    1    2    0    0  0.15129982802E+03 -0.18541478672E+02 -0.27331771207E+03  0.33698951386E+03  0.12499574526E+03 0.  0.
         24    2    1    2    0    0 -0.26187075889E+02  0.10774562917E+02  0.88437962366E+02  0.12726579566E+03  0.87025602031E+02 0.  0.
        -11    1    5    5    0    0  0.27809990379E+02  0.16628696081E+02  0.14439527186E+02  0.35474061560E+02  0.00000000000E+00 0.  1.
         12    1    5    5    0    0 -0.53997066268E+02 -0.58541331641E+01  0.73998435180E+02  0.91791734103E+02  0.00000000000E+00 0. -1.
        -13    1    3    3    0    0 -0.88903170083E+02 -0.13335745617E+03 -0.12116347965E+03  0.20091932104E+03  0.00000000000E+00 0.  1.
         14    1    3    3    0    0  0.11007503936E+02  0.25175862485E+01 -0.25029821484E+01  0.11565824789E+02  0.00000000000E+00 0. -1.
          5    1    4    4  501    0  0.16171761970E+03 -0.25002368835E+01 -0.27293166197E+03  0.31728949213E+03  0.47000000000E+01 0.  1.
         -5    1    4    4    0  501 -0.10417791684E+02 -0.16041241789E+02 -0.38605009606E+00  0.19700021735E+02  0.47000000000E+01 0.  1.
          1    1    1    2  502    0 -0.55027948526E+02  0.14985276254E+02 -0.25158066609E+03  0.25796407729E+03  0.00000000000E+00 0. -1.
          1    1    1    2  503    0  0.78108625417E+01  0.12362150942E+03  0.38995115813E+03  0.40915179688E+03  0.00000000000E+00 0. -1.
<mgrwt>
<rscale>  0 0.79702511E+02</rscale>
<asrwt>0</asrwt>
<pdfrwt beam="1">  1        2 0.86300045E-01 0.11138493E+03</pdfrwt>
<pdfrwt beam="2">  1        2 0.11132589E+00 0.57031865E+02</pdfrwt>
<totfact> 0.36578439E+02</totfact>
</mgrwt>
</event>
<event>
13    1  0.2101801E-008  0.1146575E+03  0.7546771E-02  0.1391747E+00
          2   -1    0    0  503    0  0.00000000000E+00  0.00000000000E+00  0.20307602121E+04  0.20307602121E+04  0.00000000000E+00 0. -1.
          2   -1    0    0  502    0 -0.00000000000E+00 -0.00000000000E+00 -0.25128526852E+04  0.25128526852E+04  0.00000000000E+00 0. -1.
         24    2    1    2    0    0  0.74646212761E+02 -0.79269913342E+01 -0.19365567069E+04  0.19396298631E+04  0.79228988205E+02 0.  0.
         25    2    1    2    0    0 -0.22154584141E+03 -0.51843825097E+02  0.44369275442E+03  0.51405867780E+03  0.12499088708E+03 0.  0.
         24    2    1    2    0    0  0.76202479451E+02 -0.17412826659E+02 -0.47456694461E+03  0.48749468890E+03  0.79544090836E+02 0.  0.
        -11    1    5    5    0    0  0.14107957861E+02 -0.41697227841E+02 -0.21848646583E+03  0.22287671263E+03  0.00000000000E+00 0.  1.
         12    1    5    5    0    0  0.62094521590E+02  0.24284401182E+02 -0.25608047878E+03  0.26461797627E+03  0.00000000000E+00 0. -1.
        -13    1    3    3    0    0  0.35940813233E+01 -0.19422612290E+02 -0.11741756956E+03  0.11906737979E+03  0.00000000000E+00 0.  1.
         14    1    3    3    0    0  0.71052131438E+02  0.11495620956E+02 -0.18191391374E+04  0.18205624833E+04  0.00000000000E+00 0. -1.
          5    1    4    4  501    0 -0.85455345561E+02 -0.65002449024E+02  0.28470359315E+03  0.30431260312E+03  0.47000000000E+01 0.  1.
         -5    1    4    4    0  501 -0.13609049585E+03  0.13158623927E+02  0.15898916127E+03  0.20974607468E+03  0.47000000000E+01 0.  1.
          1    1    1    2  502    0  0.20416582650E+02 -0.25874899032E+02 -0.51595181909E+02  0.61224260251E+02  0.00000000000E+00 0. -1.
          1    1    1    2  503    0  0.50280566552E+02  0.10305854212E+03  0.15369336059E+04  0.15412054073E+04  0.00000000000E+00 0. -1.
<mgrwt>
<rscale>  0 0.61474279E+02</rscale>
<asrwt>0</asrwt>
<pdfrwt beam="1">  1        2 0.29864121E+00 0.11465752E+03</pdfrwt>
<pdfrwt beam="2">  1        2 0.36953716E+00 0.32959782E+02</pdfrwt>
<totfact> 0.81785773E+00</totfact>
</mgrwt>
</event>
<event>
13    1  0.2101801E-008  0.8427348E+02  0.7546771E-02  0.1469531E+00
          2   -1    0    0  503    0  0.00000000000E+00  0.00000000000E+00  0.16451816795E+04  0.16451816795E+04  0.00000000000E+00 0. -1.
         -3   -1    0    0    0  501 -0.00000000000E+00 -0.00000000000E+00 -0.17408354838E+04  0.17408354838E+04  0.00000000000E+00 0.  1.
         24    2    1    2    0    0  0.81020808114E+02 -0.18354587239E+02 -0.66123893255E+03  0.67141760967E+03  0.81629764409E+02 0.  0.
         25    2    1    2    0    0 -0.81346819735E+01 -0.56491735465E+02 -0.22921148448E+03  0.26725110530E+03  0.12501103726E+03 0.  0.
         24    2    1    2    0    0  0.51228670788E+01 -0.19796281130E+02  0.58619278610E+02  0.10297832146E+03  0.82159469038E+02 0.  0.
        -11    1    5    5    0    0  0.23316226974E+02  0.23286972462E+02  0.76997379797E+01  0.33841032663E+02  0.00000000000E+00 0.  1.
         12    1    5    5    0    0 -0.18193359895E+02 -0.43083253592E+02  0.50919540630E+02  0.69137288798E+02  0.00000000000E+00 0. -1.
        -13    1    3    3    0    0  0.95307496933E+02 -0.33280130148E+01 -0.56227259537E+03  0.57030260928E+03  0.00000000000E+00 0.  1.
         14    1    3    3    0    0 -0.14286688819E+02 -0.15026574224E+02 -0.98966337173E+02  0.10111500039E+03  0.00000000000E+00 0. -1.
          5    1    4    4  502    0 -0.59651626255E+00  0.65428192921E+00 -0.20417665790E+03  0.20423266523E+03  0.47000000000E+01 0.  1.
         -5    1    4    4    0  502 -0.75381657110E+01 -0.57146017394E+02 -0.25034826581E+02  0.63018440065E+02  0.47000000000E+01 0.  1.
          1    1    1    2  503    0 -0.70951741187E+02  0.70796030725E+02  0.15384502591E+04  0.15417118496E+04  0.00000000000E+00 0. -1.
         -4    1    1    2    0  501 -0.70572520323E+01  0.23846573109E+02 -0.80227292498E+03  0.80265827723E+03  0.00000000000E+00 0.  1.
<mgrwt>
<rscale>  0 0.45779815E+02</rscale>
<asrwt>0</asrwt>
<pdfrwt beam="1">  1        2 0.24193848E+00 0.84273475E+02</pdfrwt>
<pdfrwt beam="2">  1       -3 0.25600522E+00 0.24868934E+02</pdfrwt>
<totfact> 0.73534334E-01</totfact>
</mgrwt>
</event>
<event>
13    1  0.2101801E-008  0.8890143E+02  0.7546771E-02  0.1427633E+00
          2   -1    0    0  502    0  0.00000000000E+00  0.00000000000E+00  0.94908341603E+03  0.94908341603E+03  0.00000000000E+00 0. -1.
          2   -1    0    0  503    0 -0.00000000000E+00 -0.00000000000E+00 -0.46426965317E+04  0.46426965317E+04  0.00000000000E+00 0. -1.
         24    2    1    2    0    0 -0.44600674588E+03  0.48600605369E+03 -0.13709716666E+04  0.15253704347E+04  0.10985331398E+03 0.  0.
         25    2    1    2    0    0 -0.12242928020E+03  0.22400466030E+03 -0.58584394498E+03  0.65115586515E+03  0.12499526540E+03 0.  0.
         24    2    1    2    0    0  0.62976891137E+03 -0.70555662566E+03 -0.20770834142E+04  0.22838522438E+04  0.85361163217E+02 0.  0.
        -11    1    3    3    0    0 -0.31254414593E+03  0.35294709025E+03 -0.10836241818E+04  0.11817346822E+04  0.00000000000E+00 0.  1.
         12    1    3    3    0    0 -0.13346259995E+03  0.13305896344E+03 -0.28734748481E+03  0.34363575245E+03  0.00000000000E+00 0. -1.
        -13    1    5    5    0    0  0.88383997136E+02 -0.14816275606E+03 -0.38355656173E+03  0.42057052830E+03  0.00000000000E+00 0.  1.
         14    1    5    5    0    0  0.54138491424E+03 -0.55739386960E+03 -0.16935268525E+04  0.18632817155E+04  0.00000000000E+00 0. -1.
          5    1    4    4  501    0  0.23203341489E+02  0.31529874720E+02 -0.51930304499E+02  0.65202565758E+02  0.47000000000E+01 0. -1.
         -5    1    4    4    0  501 -0.14563262169E+03  0.19247478558E+03 -0.53391364048E+03  0.58595329939E+03  0.47000000000E+01 0. -1.
          1    1    1    2  502    0 -0.87865723554E+02  0.13650683370E+02  0.73249841508E+03  0.73787577181E+03  0.00000000000E+00 0. -1.
          1    1    1    2  503    0  0.26532838263E+02 -0.18104771702E+02 -0.39221250496E+03  0.39352563235E+03  0.00000000000E+00 0. -1.
<mgrwt>
<rscale>  0 0.53438043E+02</rscale>
<asrwt>0</asrwt>
<pdfrwt beam="1">  1        2 0.13957109E+00 0.88901431E+02</pdfrwt>
<pdfrwt beam="2">  1        2 0.68274950E+00 0.32121243E+02</pdfrwt>
<totfact> 0.16323309E+00</totfact>
</mgrwt>
</event>
<event>
13    1  0.2101801E-008  0.1318525E+03  0.7546771E-02  0.1395539E+00
          2   -1    0    0  503    0  0.00000000000E+00  0.00000000000E+00  0.19054207356E+04  0.19054207356E+04  0.00000000000E+00 0. -1.
          2   -1    0    0  502    0 -0.00000000000E+00 -0.00000000000E+00 -0.74328803301E+03  0.74328803301E+03  0.00000000000E+00 0. -1.
         24    2    1    2    0    0  0.60969675339E+02  0.37159022702E+02 -0.26522911944E+02  0.10949832066E+03  0.78665895343E+02 0.  0.
         25    2    1    2    0    0 -0.92432746876E+02 -0.12298876489E+03  0.89200098204E+03  0.91376165291E+03  0.12499822953E+03 0.  0.
         24    2    1    2    0    0  0.59227630408E+02 -0.66722516945E+02  0.29721041766E+03  0.32052170824E+03  0.80251645575E+02 0.  0.
        -11    1    3    3    0    0  0.78199091049E+02  0.20409970145E+02 -0.12797235064E+02  0.81825631360E+02  0.00000000000E+00 0.  1.
         12    1    3    3    0    0 -0.17229415709E+02  0.16749052557E+02 -0.13725676880E+02  0.27672689299E+02  0.00000000000E+00 0. -1.
        -13    1    5    5    0    0 -0.16207985673E+02 -0.32008456453E+02  0.11047953525E+03  0.11615923465E+03  0.00000000000E+00 0.  1.
         14    1    5    5    0    0  0.75435616081E+02 -0.34714060492E+02  0.18673088241E+03  0.20436247359E+03  0.00000000000E+00 0. -1.
          5    1    4    4  501    0 -0.10324426429E+03 -0.71470992149E+02  0.77829967550E+03  0.78837805380E+03  0.47000000000E+01 0.  1.
         -5    1    4    4    0  501  0.10811517415E+02 -0.51517772745E+02  0.11370130653E+03  0.12538359911E+03  0.47000000000E+01 0.  1.
          1    1    1    2  502    0 -0.24048208142E+02  0.12499594229E+03 -0.64623388591E+03  0.65865054255E+03  0.00000000000E+00 0. -1.
          1    1    1    2  503    0 -0.37163507289E+01  0.27556316847E+02  0.64567810080E+03  0.64627654430E+03  0.00000000000E+00 0. -1.
<mgrwt>
<rscale>  0 0.60549662E+02</rscale>
<asrwt>0</asrwt>
<pdfrwt beam="1">  1        2 0.28020893E+00 0.27805788E+02</pdfrwt>
<pdfrwt beam="2">  1        2 0.10930706E+00 0.13185246E+03</pdfrwt>
<totfact> 0.76527575E+01</totfact>
</mgrwt>
</event>
<event>
13    1  0.2101801E-008  0.2578669E+03  0.7546771E-02  0.1324723E+00
          2   -1    0    0  503    0  0.00000000000E+00  0.00000000000E+00  0.72309903184E+03  0.72309903184E+03  0.00000000000E+00 0. -1.
          2   -1    0    0  502    0 -0.00000000000E+00 -0.00000000000E+00 -0.98265576205E+03  0.98265576205E+03  0.00000000000E+00 0. -1.
         24    2    1    2    0    0  0.17388775709E+02 -0.65677330360E-01 -0.36779279903E+02  0.90278445149E+02  0.80592235322E+02 0.  0.
         25    2    1    2    0    0 -0.31430042051E+03  0.26325137177E+02 -0.54058770989E+03  0.63824609065E+03  0.12508090567E+03 0.  0.
         24    2    1    2    0    0  0.41828481103E+02 -0.49950691234E+02 -0.72798027735E+02  0.12510295083E+03  0.78144110960E+02 0.  0.
        -11    1    5    5    0    0  0.38657226683E+02  0.10679613717E+02 -0.37322500178E+02  0.54785074094E+02  0.00000000000E+00 0.  1.
         12    1    5    5    0    0  0.31712544200E+01 -0.60630304950E+02 -0.35475527558E+02  0.70317876734E+02  0.00000000000E+00 0. -1.
        -13    1    3    3    0    0  0.17628243872E+02 -0.19815850187E+02  0.17995742955E+02  0.32051047801E+02  0.00000000000E+00 0.  1.
         14    1    3    3    0    0 -0.23946816230E+00  0.19750172856E+02 -0.54775022858E+02  0.58227397348E+02  0.00000000000E+00 0. -1.
          5    1    4    4  501    0 -0.17126270354E+03 -0.45318205358E+02 -0.24905953081E+03  0.30567530690E+03  0.47000000000E+01 0.  1.
         -5    1    4    4    0  501 -0.14303771697E+03  0.71643342534E+02 -0.29152817908E+03  0.33257078375E+03  0.47000000000E+01 0.  1.
          1    1    1    2  502    0 -0.24909027179E+00  0.25785822149E+02 -0.20368016814E+03  0.20530606802E+03  0.00000000000E+00 0. -1.
          1    1    1    2  503    0  0.25533225397E+03 -0.20945907623E+01  0.59428845546E+03  0.64682123924E+03  0.00000000000E+00 0. -1.
<mgrwt>
<rscale>  0 0.81545210E+02</rscale>
<asrwt>0</asrwt>
<pdfrwt beam="1">  1        2 0.10633809E+00 0.25786694E+03</pdfrwt>
<pdfrwt beam="2">  1        2 0.14450820E+00 0.25787025E+02</pdfrwt>
<totfact> 0.21329116E+02</totfact>
</mgrwt>
</event>
<event>
13    1  0.2101801E-008  0.1678624E+03  0.7546771E-02  0.1327073E+00
          2   -1    0    0  502    0  0.00000000000E+00  0.00000000000E+00  0.20087767298E+04  0.20087767298E+04  0.00000000000E+00 0. -1.
          2   -1    0    0  503    0 -0.00000000000E+00 -0.00000000000E+00 -0.23211292444E+04  0.23211292444E+04  0.00000000000E+00 0. -1.
         24    2    1    2    0    0  0.38104386966E+03  0.35163855328E+03 -0.22678992316E+03  0.57186174475E+03  0.82146716952E+02 0.  0.
         25    2    1    2    0    0 -0.18247396141E+03 -0.51794077675E+03  0.36152824644E+03  0.66924330709E+03  0.12499814516E+03 0.  0.
         24    2    1    2    0    0 -0.66385075722E+02 -0.24962518416E+01 -0.18386927661E+03  0.21155977176E+03  0.80848108186E+02 0.  0.
        -11    1    5    5    0    0 -0.84106288208E+02 -0.10964578066E+02 -0.15397524683E+03  0.17579097339E+03  0.00000000000E+00 0.  1.
         12    1    5    5    0    0  0.17721212486E+02  0.84683262249E+01 -0.29894029780E+02  0.35768798379E+02  0.00000000000E+00 0. -1.
        -13    1    3    3    0    0  0.21485675761E+03  0.21359780318E+03 -0.89573193972E+02  0.31592848066E+03  0.00000000000E+00 0.  1.
         14    1    3    3    0    0  0.16618711205E+03  0.13804075010E+03 -0.13721672919E+03  0.25593326409E+03  0.00000000000E+00 0. -1.
          5    1    4    4  501    0 -0.10264159717E+03 -0.22775838465E+03  0.95367015543E+02  0.26744370791E+03  0.47000000000E+01 0. -1.
         -5    1    4    4    0  501 -0.79832364236E+02 -0.29018239211E+03  0.26616123090E+03  0.40179959918E+03  0.47000000000E+01 0. -1.
          1    1    1    2  502    0  0.38109423936E+02  0.72758128989E+01  0.12979473546E+04  0.12985270891E+04  0.00000000000E+00 0. -1.
          1    1    1    2  503    0 -0.17029425646E+03  0.16152266242E+03 -0.15611689159E+04  0.15787140615E+04  0.00000000000E+00 0. -1.
<mgrwt>
<rscale>  0 0.80701195E+02</rscale>
<asrwt>0</asrwt>
<pdfrwt beam="1">  1        2 0.29540834E+00 0.38797753E+02</pdfrwt>
<pdfrwt beam="2">  1        2 0.34134253E+00 0.16786237E+03</pdfrwt>
<totfact> 0.94580962E+00</totfact>
</mgrwt>
</event>
<event>
13    1  0.2101801E-008  0.1214502E+03  0.7546771E-02  0.1287030E+00
          2   -1    0    0  502    0  0.00000000000E+00  0.00000000000E+00  0.17849515466E+04  0.17849515466E+04  0.00000000000E+00 0. -1.
          2   -1    0    0  503    0 -0.00000000000E+00 -0.00000000000E+00 -0.27670506231E+04  0.27670506231E+04  0.00000000000E+00 0. -1.
         24    2    1    2    0    0  0.96246642682E+02  0.85863655403E+02 -0.33265801816E+03  0.36586677418E+03  0.81000962036E+02 0.  0.
         25    2    1    2    0    0  0.87399671588E+02  0.10816671376E+03  0.39318539581E+03  0.43538295332E+03  0.12499928002E+03 0.  0.
         24    2    1    2    0    0  0.20727904825E+02 -0.44542372524E+02  0.22569725237E+03  0.24441785498E+03  0.79919766757E+02 0.  0.
        -11    1    3    3    0    0  0.17424825963E+01 -0.85543218544E+01 -0.76229389668E+02  0.76727651581E+02  0.00000000000E+00 0.  1.
         12    1    3    3    0    0  0.94504160086E+02  0.94417977258E+02 -0.25642862850E+03  0.28913912260E+03  0.00000000000E+00 0. -1.
        -13    1    5    5    0    0 -0.81254652043E+01 -0.17033898040E+02  0.41643528678E+01  0.19326631937E+02  0.00000000000E+00 0.  1.
         14    1    5    5    0    0  0.28853370029E+02 -0.27508474484E+02  0.22153289950E+03  0.22509122304E+03  0.00000000000E+00 0. -1.
          5    1    4    4  501    0  0.10499046851E+03  0.11647484507E+03  0.38079296284E+03  0.41184312372E+03  0.47000000000E+01 0. -1.
         -5    1    4    4    0  501 -0.17590796927E+02 -0.83081313122E+01  0.12392432970E+02  0.23539829595E+02  0.47000000000E+01 0. -1.
          1    1    1    2  502    0 -0.73275581133E+02  0.24479637156E+02  0.11126941385E+04  0.11153729462E+04  0.00000000000E+00 0. -1.
          1    1    1    2  503    0 -0.13109863796E+03 -0.17396763379E+03 -0.23810178450E+04  0.23909616410E+04  0.00000000000E+00 0. -1.
<mgrwt>
<rscale>  0 0.96864945E+02</rscale>
<asrwt>0</asrwt>
<pdfrwt beam="1">  1        2 0.26249287E+00 0.77256478E+02</pdfrwt>
<pdfrwt beam="2">  1        2 0.40691921E+00 0.12145024E+03</pdfrwt>
<totfact> 0.69174490E+00</totfact>
</mgrwt>
</event>
<event>
13    1  0.2101801E-008  0.8372294E+02  0.7546771E-02  0.1357245E+00
         -1   -1    0    0    0  501 -0.00000000000E+00  0.00000000000E+00  0.10613442654E+04  0.10613442654E+04  0.00000000000E+00 0.  1.
          2   -1    0    0  503    0  0.00000000000E+00 -0.00000000000E+00 -0.20744032385E+04  0.20744032385E+04  0.00000000000E+00 0. -1.
         24    2    1    2    0    0 -0.83080633648E+02  0.16339198899E+02  0.35192762911E+03  0.37070782700E+03  0.80011722619E+02 0.  0.
         25    2    1    2    0    0  0.22796408709E+03 -0.13894725413E+02 -0.67790170862E+03  0.72617937156E+03  0.12500025893E+03 0.  0.
         24    2    1    2    0    0 -0.78866159801E+02  0.34867697717E+02 -0.31305394519E+03  0.33362180794E+03  0.76584010265E+02 0.  0.
        -13    1    3    3    0    0 -0.90627964603E+02  0.34347935388E+02  0.28872209146E+03  0.30455484683E+03  0.00000000000E+00 0.  1.
         14    1    3    3    0    0  0.75473309551E+01 -0.18008736489E+02  0.63205537658E+02  0.66152980168E+02  0.00000000000E+00 0. -1.
        -13    1    5    5    0    0 -0.83580077208E+02  0.36055413921E+02 -0.31536527967E+03  0.32823906197E+03  0.00000000000E+00 0.  1.
         14    1    5    5    0    0  0.47139174074E+01 -0.11877162038E+01  0.23113344822E+01  0.53827459715E+01  0.00000000000E+00 0. -1.
          5    1    4    4  502    0  0.86304285915E+02 -0.31095968278E+02 -0.12488117528E+03  0.15502511716E+03  0.47000000000E+01 0. -1.
         -5    1    4    4    0  502  0.14165980118E+03  0.17201242865E+02 -0.55302053335E+03  0.57115425441E+03  0.47000000000E+01 0. -1.
          1    1    1    2  503    0 -0.81260163643E+02  0.20664150684E+02 -0.10365887757E+04  0.10399742840E+04  0.00000000000E+00 0. -1.
         -2    1    1    2    0  501  0.15242870001E+02 -0.57976321887E+02  0.66255782736E+03  0.66526421336E+03  0.00000000000E+00 0.  1.
<mgrwt>
<rscale>  0 0.70844253E+02</rscale>
<asrwt>0</asrwt>
<pdfrwt beam="2">  1        2 0.30505929E+00 0.83722935E+02</pdfrwt>
<pdfrwt beam="1">  1       -1 0.15608004E+00 0.59946634E+02</pdfrwt>
<totfact> 0.37468962E+00</totfact>
</mgrwt>
</event>
<event>
13    1  0.2101801E-008  0.1185459E+03  0.7546771E-02  0.1282686E+00
          2   -1    0    0  502    0  0.00000000000E+00  0.00000000000E+00  0.35594026466E+04  0.35594026466E+04  0.00000000000E+00 0. -1.
          2   -1    0    0  503    0 -0.00000000000E+00 -0.00000000000E+00 -0.14721924710E+03  0.14721924710E+03  0.00000000000E+00 0. -1.
         24    2    1    2    0    0  0.30343590740E+02  0.69967372889E+02  0.10701916844E+03  0.15395613923E+03  0.80207378870E+02 0.  0.
         25    2    1    2    0    0  0.13787509361E+03  0.68952124871E+01  0.17207384352E+04  0.17307866779E+04  0.12499870637E+03 0.  0.
         24    2    1    2    0    0  0.71314477677E+02 -0.37375605823E+02  0.13359278538E+03  0.17481917248E+03  0.78943144875E+02 0.  0.
        -11    1    5    5    0    0  0.12726581535E+02 -0.50668861297E+02  0.69867351703E+02  0.87239590879E+02  0.00000000000E+00 0.  1.
         12    1    5    5    0    0  0.58587896142E+02  0.13293255474E+02  0.63725433679E+02  0.87579581599E+02  0.00000000000E+00 0. -1.
        -13    1    3    3    0    0 -0.45510251187E+01  0.38255935824E+01 -0.12000676842E+02  0.13392656218E+02  0.00000000000E+00 0.  1.
         14    1    3    3    0    0  0.34894615859E+02  0.66141779306E+02  0.11901984528E+03  0.14056348301E+03  0.00000000000E+00 0. -1.
          5    1    4    4  501    0 -0.16170912437E+02  0.23033432073E+02  0.17632790905E+03  0.17862155220E+03  0.47000000000E+01 0. -1.
         -5    1    4    4    0  501  0.15404600604E+03 -0.16138219586E+02  0.15444105262E+04  0.15521651257E+04  0.47000000000E+01 0. -1.
          1    1    1    2  502    0 -0.81651700233E+02  0.11540018340E+02  0.14768148514E+04  0.14791153699E+04  0.00000000000E+00 0. -1.
          1    1    1    2  503    0 -0.15788146179E+03 -0.51026997892E+02 -0.25981840963E+02  0.16794453415E+03  0.00000000000E+00 0. -1.
<mgrwt>
<rscale>  0 0.98871995E+02</rscale>
<asrwt>0</asrwt>
<pdfrwt beam="1">  1        2 0.52344151E+00 0.82463156E+02</pdfrwt>
<pdfrwt beam="2">  1        2 0.21649892E-01 0.11854593E+03</pdfrwt>
<totfact> 0.55483867E+01</totfact>
</mgrwt>
</event>
<event>
13    1  0.2101801E-008  0.6417601E+02  0.7546771E-02  0.1435025E+00
          2   -1    0    0  502    0  0.00000000000E+00  0.00000000000E+00  0.72564560685E+03  0.72564560685E+03  0.00000000000E+00 0. -1.
          4   -1    0    0  503    0 -0.00000000000E+00 -0.00000000000E+00 -0.15982630789E+04  0.15982630789E+04  0.00000000000E+00 0. -1.
         24    2    1    2    0    0  0.34958366307E+02  0.22882866087E+03 -0.25404989531E+03  0.35169309051E+03  0.74579066746E+02 0.  0.
         25    2    1    2    0    0 -0.78955507617E+02 -0.20408401149E+03 -0.90828823746E+02  0.26788353685E+03  0.12500983227E+03 0.  0.
         24    2    1    2    0    0  0.44624451307E+02  0.48681338415E+02  0.20818576209E+03  0.22881630184E+03  0.68222973308E+02 0.  0.
        -13    1    5    5    0    0  0.44467268269E+02 -0.13543005313E+01  0.10885343922E+03  0.11759355130E+03  0.00000000000E+00 0.  1.
         14    1    5    5    0    0  0.15718303743E+00  0.50035638946E+02  0.99332322874E+02  0.11122275055E+03  0.00000000000E+00 0. -1.
        -13    1    3    3    0    0  0.19521819919E+02  0.54711992575E+02 -0.11309665866E+03  0.12714306031E+03  0.00000000000E+00 0.  1.
         14    1    3    3    0    0  0.15436546388E+02  0.17411666829E+03 -0.14095323665E+03  0.22455003020E+03  0.00000000000E+00 0. -1.
          5    1    4    4  501    0 -0.74401767574E+02 -0.42546028988E+02 -0.79400761791E+01  0.86202798160E+02  0.47000000000E+01 0.  1.
         -5    1    4    4    0  501 -0.45537400426E+01 -0.16153798250E+03 -0.82888747567E+02  0.18168073869E+03  0.47000000000E+01 0.  1.
          1    1    1    2  502    0  0.36177200663E+02 -0.53033293953E+02  0.36660507694E+03  0.37218356030E+03  0.00000000000E+00 0. -1.
          3    1    1    2  503    0 -0.36804510660E+02 -0.20392693838E+02 -0.11025295920E+04  0.11033321962E+04  0.00000000000E+00 0. -1.
<mgrwt>
<rscale>  0 0.51964446E+02</rscale>
<asrwt>0</asrwt>
<pdfrwt beam="1">  1        2 0.10671259E+00 0.64176014E+02</pdfrwt>
<pdfrwt beam="2">  1        4 0.23503869E+00 0.42076525E+02</pdfrwt>
<totfact> 0.21701615E+00</totfact>
</mgrwt>
</event>
<event>
13    1  0.2101801E-008  0.9719886E+02  0.7546771E-02  0.1395075E+00
          2   -1    0    0  502    0  0.00000000000E+00  0.00000000000E+00  0.26165051510E+04  0.26165051510E+04  0.00000000000E+00 0. -1.
          4   -1    0    0  503    0 -0.00000000000E+00 -0.00000000000E+00 -0.60799246011E+03  0.60799246011E+03  0.00000000000E+00 0. -1.
         24    2    1    2    0    0 -0.71397683942E+01  0.45976284694E+02 -0.11178240507E+03  0.13532180477E+03  0.60430867258E+02 0.  0.
         25    2    1    2    0    0 -0.10107619004E+03 -0.63845672997E+02 -0.18767864673E+03  0.25522751644E+03  0.12500057822E+03 0.  0.
         24    2    1    2    0    0 -0.35314905257E+02 -0.65300175563E+02  0.46268822816E+03  0.47544519748E+03  0.80352248703E+02 0.  0.
        -11    1    5    5    0    0 -0.56337324259E+02 -0.49857238405E+02  0.24748117803E+03  0.25866304685E+03  0.00000000000E+00 0.  1.
         12    1    5    5    0    0  0.21022419002E+02 -0.15442937159E+02  0.21520705013E+03  0.21678215063E+03  0.00000000000E+00 0. -1.
        -13    1    3    3    0    0  0.98643759659E+01  0.37930038674E+02 -0.24915024557E+02  0.46440846199E+02  0.00000000000E+00 0.  1.
         14    1    3    3    0    0 -0.17004144360E+02  0.80462460202E+01 -0.86867380509E+02  0.88880958573E+02  0.00000000000E+00 0. -1.
          5    1    4    4  501    0  0.92453231955E+00 -0.57934410040E+02 -0.11777896088E+03  0.13134391594E+03  0.47000000000E+01 0.  1.
         -5    1    4    4    0  501 -0.10200072236E+03 -0.59112629566E+01 -0.69899685849E+02  0.12388360050E+03  0.47000000000E+01 0.  1.
          1    1    1    2  502    0  0.12108111609E+03  0.52684617560E+02  0.20984112395E+04  0.21025617792E+04  0.00000000000E+00 0. -1.
          3    1    1    2  503    0  0.22449747599E+02  0.30484946306E+02 -0.25312572498E+03  0.25594131313E+03  0.00000000000E+00 0. -1.
<mgrwt>
<rscale>  0 0.60661985E+02</rscale>
<asrwt>0</asrwt>
<pdfrwt beam="1">  1        2 0.38478017E+00 0.97198864E+02</pdfrwt>
<pdfrwt beam="2">  1        4 0.89410657E-01 0.37859254E+02</pdfrwt>
<totfact> 0.24312158E+00</totfact>
</mgrwt>
</event>
<event>
13    1  0.2101801E-008  0.1646266E+03  0.7546771E-02  0.1389665E+00
         -1   -1    0    0    0  501 -0.00000000000E+00  0.00000000000E+00  0.34720382729E+04  0.34720382729E+04  0.00000000000E+00 0.  1.
          2   -1    0    0  503    0  0.00000000000E+00 -0.00000000000E+00 -0.83347693836E+03  0.83347693836E+03  0.00000000000E+00 0. -1.
         24    2    1    2    0    0  0.58994118920E+03  0.10934363203E+03  0.15604871326E+04  0.16748957057E+04  0.10084095157E+03 0.  0.
         25    2    1    2    0    0 -0.45375482156E+03 -0.53193389401E+02 -0.18707070065E+03  0.50925528860E+03  0.12499010827E+03 0.  0.
         24    2    1    2    0    0 -0.31745764765E+02 -0.15371377518E+03  0.25237178267E+02  0.17435376945E+03  0.71600303708E+02 0.  0.
        -11    1    5    5    0    0 -0.33928895575E+02 -0.16096371675E+03  0.21466962625E+02  0.16589550491E+03  0.00000000000E+00 0.  1.
         12    1    5    5    0    0  0.21831308101E+01  0.72499415699E+01  0.37702156418E+01  0.84582645316E+01  0.00000000000E+00 0. -1.
        -13    1    3    3    0    0  0.54746943926E+03  0.89085073830E+02  0.13558726904E+04  0.14649401660E+04  0.00000000000E+00 0.  1.
         14    1    3    3    0    0  0.42471749932E+02  0.20258558200E+02  0.20461444213E+03  0.20995553970E+03  0.00000000000E+00 0. -1.
          5    1    4    4  502    0 -0.20999656841E+03  0.31735690045E+02 -0.11325473392E+03  0.24073727904E+03  0.47000000000E+01 0.  1.
         -5    1    4    4    0  502 -0.24375825315E+03 -0.84929079446E+02 -0.73815966736E+02  0.26851800956E+03  0.47000000000E+01 0.  1.
          1    1    1    2  503    0  0.21756606446E+02 -0.84566137450E+01 -0.34889822394E+03  0.34967818763E+03  0.00000000000E+00 0. -1.
         -2    1    1    2    0  501 -0.12619720932E+03  0.10602014630E+03  0.15888059483E+04  0.15973322599E+04  0.00000000000E+00 0.  1.
<mgrwt>
<rscale>  0 0.61990060E+02</rscale>
<asrwt>0</asrwt>
<pdfrwt beam="2">  1        2 0.12257014E+00 0.23342327E+02</pdfrwt>
<pdfrwt beam="1">  1       -1 0.51059386E+00 0.16462658E+03</pdfrwt>
<totfact> 0.76695826E-02</totfact>
</mgrwt>
</event>
<event>
13    1  0.2101801E-008  0.5062721E+02  0.7546771E-02  0.1516141E+00
          2   -1    0    0  503    0  0.00000000000E+00  0.00000000000E+00  0.21841649932E+04  0.21841649932E+04  0.00000000000E+00 0. -1.
         -3   -1    0    0    0  501 -0.00000000000E+00 -0.00000000000E+00 -0.10465760681E+04  0.10465760681E+04  0.00000000000E+00 0.  1.
         24    2    1    2    0    0  0.57639117953E+02 -0.46978310306E+02 -0.36697522047E+03  0.38291587524E+03  0.80153137921E+02 0.  0.
         25    2    1    2    0    0 -0.55112208397E+02  0.45944480473E+02  0.11345583421E+03  0.18342690539E+03  0.12499981003E+03 0.  0.
         24    2    1    2    0    0 -0.41622317108E+02 -0.64454421032E+02 -0.14544071323E+03  0.18309943191E+03  0.80533292690E+02 0.  0.
        -13    1    3    3    0    0  0.93772012813E+01 -0.33163363204E+02 -0.28291815423E+03  0.28500951310E+03  0.00000000000E+00 0.  1.
         14    1    3    3    0    0  0.48261916671E+02 -0.13814947102E+02 -0.84057066236E+02  0.97906362145E+02  0.00000000000E+00 0. -1.
        -13    1    5    5    0    0  0.77240008546E+01  0.52597092668E+01  0.46273092003E+01  0.10427690119E+02  0.00000000000E+00 0.  1.
         14    1    5    5    0    0 -0.49346317962E+02 -0.69714130299E+02 -0.15006802243E+03  0.17267174179E+03  0.00000000000E+00 0. -1.
          5    1    4    4  502    0 -0.67497913187E+02  0.80210539730E+02  0.97960587086E+02  0.14355509601E+03  0.47000000000E+01 0. -1.
         -5    1    4    4    0  502  0.12385704790E+02 -0.34266059257E+02  0.15495247121E+02  0.39871809383E+02  0.47000000000E+01 0. -1.
          1    1    1    2  503    0  0.14410678831E+02  0.48519456607E+02  0.20081298624E+04  0.20087676197E+04  0.00000000000E+00 0. -1.
         -4    1    1    2    0  501  0.24684728720E+02  0.16968794258E+02 -0.47158083790E+03  0.47253122911E+03  0.00000000000E+00 0.  1.
<mgrwt>
<rscale>  0 0.38942470E+02</rscale>
<asrwt>0</asrwt>
<pdfrwt beam="1">  1        2 0.32120073E+00 0.50627210E+02</pdfrwt>
<pdfrwt beam="2">  1       -3 0.15390825E+00 0.29954562E+02</pdfrwt>
<totfact> 0.16170943E+00</totfact>
</mgrwt>
</event>
<event>
13    1  0.2101801E-008  0.7151042E+02  0.7546771E-02  0.1454727E+00
          2   -1    0    0  503    0  0.00000000000E+00  0.00000000000E+00  0.19112799185E+04  0.19112799185E+04  0.00000000000E+00 0. -1.
          2   -1    0    0  502    0 -0.00000000000E+00 -0.00000000000E+00 -0.12581007088E+04  0.12581007088E+04  0.00000000000E+00 0. -1.
         24    2    1    2    0    0  0.66789489307E+02  0.72572904650E+01 -0.30557878168E+03  0.32273413271E+03  0.79154434245E+02 0.  0.
         25    2    1    2    0    0 -0.15242179811E+03  0.64331548822E+01  0.67914449994E+03  0.70720411520E+03  0.12500647476E+03 0.  0.
         24    2    1    2    0    0 -0.16397117229E+02 -0.33608559470E+02  0.70608030535E+02  0.11248132430E+03  0.79171671808E+02 0.  0.
        -11    1    3    3    0    0 -0.10895474833E+02 -0.55130695327E+01 -0.72691636428E+01  0.14210772237E+02  0.00000000000E+00 0.  1.
         12    1    3    3    0    0  0.77684964141E+02  0.12770359998E+02 -0.29830961803E+03  0.30852336048E+03  0.00000000000E+00 0. -1.
        -13    1    5    5    0    0  0.26969812918E+02 -0.28451950019E+02  0.15474981575E+02  0.42146877980E+02  0.00000000000E+00 0.  1.
         14    1    5    5    0    0 -0.43366930147E+02 -0.51566094514E+01  0.55133048960E+02  0.70334446319E+02  0.00000000000E+00 0. -1.
          5    1    4    4  501    0 -0.16309261894E+03  0.20965203165E+02  0.48439869478E+03  0.51156908390E+03  0.47000000000E+01 0.  1.
         -5    1    4    4    0  501  0.10670820826E+02 -0.14532048283E+02  0.19474580516E+03  0.19563503130E+03  0.47000000000E+01 0.  1.
          1    1    1    2  502    0  0.70539424126E+02  0.11389983058E+02 -0.90733492411E+03  0.91014405815E+03  0.00000000000E+00 0. -1.
          1    1    1    2  503    0  0.31490001906E+02  0.85281310650E+01  0.11163403850E+04  0.11168169969E+04  0.00000000000E+00 0. -1.
<mgrwt>
<rscale>  0 0.48300954E+02</rscale>
<asrwt>0</asrwt>
<pdfrwt beam="1">  1        2 0.28107058E+00 0.32624366E+02</pdfrwt>
<pdfrwt beam="2">  1        2 0.18501481E+00 0.71510423E+02</pdfrwt>
<totfact> 0.38477864E+01</totfact>
</mgrwt>
</event>
<event>
13    1  0.2101801E-008  0.1470133E+03  0.7546771E-02  0.1333387E+00
          2   -1    0    0  503    0  0.00000000000E+00  0.00000000000E+00  0.98739672483E+03  0.98739672483E+03  0.00000000000E+00 0. -1.
          2   -1    0    0  502    0 -0.00000000000E+00 -0.00000000000E+00 -0.14420342993E+04  0.14420342993E+04  0.00000000000E+00 0. -1.
         24    2    1    2    0    0 -0.69737014909E+02 -0.91436214437E+02 -0.48228749580E+03  0.50242370225E+03  0.81268169767E+02 0.  0.
         25    2    1    2    0    0 -0.13223541128E+03  0.10190539677E+03  0.28670021409E+03  0.35453093298E+03  0.12499702313E+03 0.  0.
         24    2    1    2    0    0  0.10461436923E+03 -0.71546432770E+02 -0.10981067375E+03  0.18728973171E+03  0.83402645288E+02 0.  0.
        -11    1    5    5    0    0  0.29128127871E+02 -0.22139664770E+02  0.94133654490E+01  0.37778618801E+02  0.00000000000E+00 0.  1.
         12    1    5    5    0    0  0.75486241358E+02 -0.49406767999E+02 -0.11922403920E+03  0.14951111291E+03  0.00000000000E+00 0. -1.
        -13    1    3    3    0    0 -0.61835873943E+02 -0.93884049064E+02 -0.48110895145E+03  0.49406853081E+03  0.00000000000E+00 0.  1.
         14    1    3    3    0    0 -0.79011409662E+01  0.24478346270E+01 -0.11785443503E+01  0.83551714354E+01  0.00000000000E+00 0. -1.
          5    1    4    4  501    0 -0.73136260919E+02  0.12496389428E+03  0.19483135877E+03  0.24278845915E+03  0.47000000000E+01 0. -1.
         -5    1    4    4    0  501 -0.59099150358E+02 -0.23058497506E+02  0.91868855316E+02  0.11174247383E+03  0.47000000000E+01 0. -1.
          1    1    1    2  502    0 -0.40320015172E+02  0.11424815324E+02 -0.75796052514E+03  0.75911816451E+03  0.00000000000E+00 0. -1.
          1    1    1    2  503    0  0.13767807213E+03  0.49652435112E+02  0.60872090618E+03  0.62606849264E+03  0.00000000000E+00 0. -1.
<mgrwt>
<rscale>  0 0.78491681E+02</rscale>
<asrwt>0</asrwt>
<pdfrwt beam="1">  1        2 0.14520540E+00 0.14701328E+03</pdfrwt>
<pdfrwt beam="2">  1        2 0.21206387E+00 0.41907398E+02</pdfrwt>
<totfact> 0.83608610E+01</totfact>
</mgrwt>
</event>
<event>
13    1  0.2101801E-008  0.9985810E+02  0.7546771E-02  0.1368822E+00
          2   -1    0    0  502    0  0.00000000000E+00  0.00000000000E+00  0.33166540287E+03  0.33166540287E+03  0.00000000000E+00 0. -1.
          2   -1    0    0  503    0 -0.00000000000E+00 -0.00000000000E+00 -0.36000791037E+04  0.36000791037E+04  0.00000000000E+00 0. -1.
         24    2    1    2    0    0  0.44906871345E+02  0.49146639278E+02 -0.39225333453E+03  0.40571780487E+03  0.79449603456E+02 0.  0.
         25    2    1    2    0    0 -0.11580443242E+03 -0.41355440321E+02  0.15375257196E+03  0.23320572183E+03  0.12499646513E+03 0.  0.
         24    2    1    2    0    0 -0.62949270771E+02  0.89475116964E+01 -0.12634729259E+02  0.10013365081E+03  0.76318038392E+02 0.  0.
        -11    1    5    5    0    0 -0.29767146443E+02 -0.24774219936E+02 -0.30773700586E+02  0.49465802617E+02  0.00000000000E+00 0.  1.
         12    1    5    5    0    0 -0.33182124328E+02  0.33721731632E+02  0.18138971328E+02  0.50667848188E+02  0.00000000000E+00 0. -1.
        -13    1    3    3    0    0  0.15662947269E+02 -0.13315201573E+02 -0.26606488681E+02  0.33623321520E+02  0.00000000000E+00 0.  1.
         14    1    3    3    0    0  0.29243924076E+02  0.62461840851E+02 -0.36564684585E+03  0.37209448335E+03  0.00000000000E+00 0. -1.
          5    1    4    4  501    0 -0.73454460690E+02 -0.59194359313E+02  0.16078859472E+03  0.18647946847E+03  0.47000000000E+01 0. -1.
         -5    1    4    4    0  501 -0.42349971732E+02  0.17838918992E+02 -0.70360227563E+01  0.46726253356E+02  0.47000000000E+01 0. -1.
          1    1    1    2  502    0  0.40923194767E+02  0.20164653254E+02  0.80910296286E+02  0.92885936266E+02  0.00000000000E+00 0. -1.
          1    1    1    2  503    0  0.92923637081E+02 -0.36903363907E+02 -0.30981885053E+04  0.30998013928E+04  0.00000000000E+00 0. -1.
<mgrwt>
<rscale>  0 0.67495748E+02</rscale>
<asrwt>0</asrwt>
<pdfrwt beam="1">  1        2 0.48774323E-01 0.45621498E+02</pdfrwt>
<pdfrwt beam="2">  1        2 0.52942341E+00 0.99858098E+02</pdfrwt>
<totfact> 0.20993026E+01</totfact>
</mgrwt>
</event>
<event>
13    1  0.2101801E-008  0.9439967E+02  0.7546771E-02  0.1343466E+00
          2   -1    0    0  503    0  0.00000000000E+00  0.00000000000E+00  0.14133496776E+04  0.14133496776E+04  0.00000000000E+00 0. -1.
          2   -1    0    0  502    0 -0.00000000000E+00 -0.00000000000E+00 -0.49592525894E+03  0.49592525894E+03  0.00000000000E+00 0. -1.
         24    2    1    2    0    0  0.37669103217E+03 -0.96132586713E+02 -0.69212398916E+02  0.40191937517E+03  0.74908077172E+02 0.  0.
         25    2    1    2    0    0 -0.17617169117E+03  0.34732354131E+02  0.16595451107E+03  0.27460540647E+03  0.12499771328E+03 0.  0.
         24    2    1    2    0    0 -0.63445801809E+02  0.30918529044E+02 -0.41099435294E+02  0.11373085359E+03  0.79146814659E+02 0.  0.
        -11    1    3    3    0    0  0.59965768394E+02  0.21813445072E+01 -0.32551527916E+02  0.68266050219E+02  0.00000000000E+00 0.  1.
         12    1    3    3    0    0  0.31672526378E+03 -0.98313931220E+02 -0.36660871001E+02  0.33365332495E+03  0.00000000000E+00 0. -1.
        -13    1    5    5    0    0 -0.44007440605E+02 -0.21688152139E+02 -0.26579011287E+02  0.55798518016E+02  0.00000000000E+00 0.  1.
         14    1    5    5    0    0 -0.19438361205E+02  0.52606681183E+02 -0.14520424008E+02  0.57932335572E+02  0.00000000000E+00 0. -1.
          5    1    4    4  501    0 -0.13422166352E+03  0.77635124705E+02  0.96469403867E+02  0.18267759421E+03  0.47000000000E+01 0. -1.
         -5    1    4    4    0  501 -0.41950027650E+02 -0.42902770575E+02  0.69485107205E+02  0.91927812256E+02  0.47000000000E+01 0. -1.
          1    1    1    2  502    0 -0.79752867465E+02  0.47506458399E+02 -0.11083031266E+03  0.14457088802E+03  0.00000000000E+00 0. -1.
          1    1    1    2  503    0 -0.57320671730E+02 -0.17024754861E+02  0.97261205441E+03  0.97444841324E+03  0.00000000000E+00 0. -1.
<mgrwt>
<rscale>  0 0.75131056E+02</rscale>
<asrwt>0</asrwt>
<pdfrwt beam="1">  1        2 0.20784554E+00 0.59795499E+02</pdfrwt>
<pdfrwt beam="2">  1        2 0.72930186E-01 0.94399673E+02</pdfrwt>
<totfact> 0.19136982E+02</totfact>
</mgrwt>
</event>
<event>
13    1  0.2101801E-008  0.1244117E+03  0.7546771E-02  0.1282228E+00
          2   -1    0    0  503    0  0.00000000000E+00  0.00000000000E+00  0.16338795988E+04  0.16338795988E+04  0.00000000000E+00 0. -1.
          2   -1    0    0  502    0 -0.00000000000E+00 -0.00000000000E+00 -0.28788633947E+04  0.28788633947E+04  0.00000000000E+00 0. -1.
         24    2    1    2    0    0  0.68493622876E+02  0.92980656930E+01 -0.56629482071E+03  0.57629273049E+03  0.81520898263E+02 0.  0.
         25    2    1    2    0    0 -0.64992060503E+02  0.14293194697E+03 -0.24765236484E+03  0.31874799420E+03  0.12496031611E+03 0.  0.
         24    2    1    2    0    0  0.17702810796E+02  0.54267305624E+02  0.18904323026E+03  0.21412998545E+03  0.82800832074E+02 0.  0.
        -11    1    5    5    0    0 -0.16067043902E+02  0.62086734953E+02  0.14087450607E+03  0.15478546126E+03  0.00000000000E+00 0.  1.
         12    1    5    5    0    0  0.33769854698E+02 -0.78194293290E+01  0.48168724185E+02  0.59344524186E+02  0.00000000000E+00 0. -1.
        -13    1    3    3    0    0  0.84248265620E+02 -0.56359107571E+01 -0.42084620947E+03  0.42923311356E+03  0.00000000000E+00 0.  1.
         14    1    3    3    0    0 -0.15754642744E+02  0.14933976450E+02 -0.14544861125E+03  0.14705961694E+03  0.00000000000E+00 0. -1.
          5    1    4    4  501    0 -0.23779012240E+02  0.59238770180E+02 -0.20737093600E+03  0.21702411943E+03  0.47000000000E+01 0.  1.
         -5    1    4    4    0  501 -0.41213048263E+02  0.83693176793E+02 -0.40281428834E+02  0.10172387477E+03  0.47000000000E+01 0.  1.
          1    1    1    2  502    0  0.45688038885E+02 -0.11691848507E+03 -0.20076174224E+04  0.20115379797E+04  0.00000000000E+00 0. -1.
          1    1    1    2  503    0 -0.66892412054E+02 -0.89578833220E+02  0.13875375817E+04  0.13920343038E+04  0.00000000000E+00 0. -1.
<mgrwt>
<rscale>  0 0.99086778E+02</rscale>
<asrwt>0</asrwt>
<pdfrwt beam="1">  1        2 0.24027642E+00 0.78916934E+02</pdfrwt>
<pdfrwt beam="2">  1        2 0.42336226E+00 0.12441170E+03</pdfrwt>
<totfact> 0.71044372E+00</totfact>
</mgrwt>
</event>
<event>
13    1  0.2101801E-008  0.7808128E+02  0.7546771E-02  0.1471380E+00
          2   -1    0    0  503    0  0.00000000000E+00  0.00000000000E+00  0.20699370067E+04  0.20699370067E+04  0.00000000000E+00 0. -1.
          2   -1    0    0  502    0 -0.00000000000E+00 -0.00000000000E+00 -0.29037440653E+04  0.29037440653E+04  0.00000000000E+00 0. -1.
         24    2    1    2    0    0  0.50988627422E+02  0.67366444690E+02 -0.60718702814E+03  0.61823963797E+03  0.80038021108E+02 0.  0.
         25    2    1    2    0    0 -0.28271086055E+02 -0.55680965457E+02  0.29508255273E+03  0.32649358591E+03  0.12499889798E+03 0.  0.
         24    2    1    2    0    0 -0.40855619376E+02 -0.81762966690E+02 -0.36166478906E+03  0.38149461444E+03  0.79889654197E+02 0.  0.
        -13    1    5    5    0    0 -0.53960916840E+01  0.73718414957E+01 -0.13574229472E+03  0.13604937496E+03  0.00000000000E+00 0.  1.
         14    1    5    5    0    0 -0.35459527692E+02 -0.89134808185E+02 -0.22592249434E+03  0.24544523948E+03  0.00000000000E+00 0. -1.
        -13    1    3    3    0    0  0.61786645033E+02  0.19988690287E+02 -0.41247785167E+03  0.41755851729E+03  0.00000000000E+00 0.  1.
         14    1    3    3    0    0 -0.10798017611E+02  0.47377754403E+02 -0.19470917647E+03  0.20068112068E+03  0.00000000000E+00 0. -1.
          5    1    4    4  501    0 -0.42544517102E+02  0.15212058767E+02  0.20941783285E+03  0.21428803369E+03  0.47000000000E+01 0. -1.
         -5    1    4    4    0  501  0.14273431046E+02 -0.70893024224E+02  0.85664719875E+02  0.11220555222E+03  0.47000000000E+01 0. -1.
          1    1    1    2  502    0 -0.25892946033E+02  0.55847191127E+01 -0.19027789934E+04  0.19029633553E+04  0.00000000000E+00 0. -1.
          1    1    1    2  503    0  0.44031024043E+02  0.64492768344E+02  0.17427411992E+04  0.17444898784E+04  0.00000000000E+00 0. -1.
<mgrwt>
<rscale>  0 0.45477971E+02</rscale>
<asrwt>0</asrwt>
<pdfrwt beam="1">  1        2 0.30440250E+00 0.78081279E+02</pdfrwt>
<pdfrwt beam="2">  1        2 0.42702118E+00 0.26488370E+02</pdfrwt>
<totfact> 0.54889535E+00</totfact>
</mgrwt>
</event>
<event>
13    1  0.2101801E-008  0.8615620E+02  0.7546771E-02  0.1395918E+00
          2   -1    0    0  502    0  0.00000000000E+00  0.00000000000E+00  0.29918773325E+04  0.29918773325E+04  0.00000000000E+00 0. -1.
          2   -1    0    0  503    0 -0.00000000000E+00 -0.00000000000E+00 -0.18300054354E+04  0.18300054354E+04  0.00000000000E+00 0. -1.
         24    2    1    2    0    0  0.50922587034E+03 -0.56434639880E+03  0.15422523753E+03  0.78147030460E+03  0.95459772724E+02 0.  0.
         25    2    1    2    0    0 -0.17209925680E+03 -0.64682122587E+02  0.57103541860E+03  0.61278732974E+03  0.12499972408E+03 0.  0.
         24    2    1    2    0    0 -0.44094357927E+03  0.58074599620E+03  0.44045421356E+03  0.85568857833E+03  0.80659014598E+02 0.  0.
        -11    1    5    5    0    0 -0.36713897243E+03  0.43179312595E+03  0.32573895929E+03  0.65371415641E+03  0.00000000000E+00 0.  1.
         12    1    5    5    0    0 -0.73804606848E+02  0.14895287024E+03  0.11471525427E+03  0.20197442191E+03  0.00000000000E+00 0. -1.
        -13    1    3    3    0    0  0.91679207415E+02 -0.13447414088E+03  0.66458467895E+02  0.17579846300E+03  0.00000000000E+00 0.  1.
         14    1    3    3    0    0  0.41754666293E+03 -0.42987225792E+03  0.87766769636E+02  0.60567184160E+03  0.00000000000E+00 0. -1.
          5    1    4    4  501    0 -0.12929650880E+03 -0.42406754781E+01  0.46952012770E+03  0.48703881861E+03  0.47000000000E+01 0. -1.
         -5    1    4    4    0  501 -0.42802748003E+02 -0.60441447109E+02  0.10151529090E+03  0.12574851113E+03  0.47000000000E+01 0. -1.
          1    1    1    2  502    0  0.85512254728E+02  0.10009201371E+02  0.12822534178E+04  0.12851405982E+04  0.00000000000E+00 0. -1.
          1    1    1    2  503    0  0.18304711009E+02  0.38273323824E+02 -0.12860963904E+04  0.12867959570E+04  0.00000000000E+00 0. -1.
<mgrwt>
<rscale>  0 0.60458304E+02</rscale>
<asrwt>0</asrwt>
<pdfrwt beam="1">  1        2 0.43998196E+00 0.86156204E+02</pdfrwt>
<pdfrwt beam="2">  1        2 0.26911845E+00 0.42425343E+02</pdfrwt>
<totfact> 0.56131647E+00</totfact>
</mgrwt>
</event>
<event>
13    1  0.2101801E-008  0.1286682E+03  0.7546771E-02  0.1258673E+00
          4   -1    0    0  503    0 -0.00000000000E+00  0.00000000000E+00  0.14393301652E+04  0.14393301652E+04  0.00000000000E+00 0. -1.
          2   -1    0    0  502    0  0.00000000000E+00 -0.00000000000E+00 -0.15245106700E+04  0.15245106700E+04  0.00000000000E+00 0. -1.
         24    2    1    2    0    0 -0.64954104449E+02 -0.11036345227E+02  0.71457733746E+03  0.72224310293E+03  0.81691443374E+02 0.  0.
         25    2    1    2    0    0 -0.43969303413E+02  0.66310516350E+02 -0.11152819619E+04  0.11250814216E+04  0.12499586607E+03 0.  0.
         24    2    1    2    0    0 -0.38063176911E+02 -0.20230716242E+02  0.77023094893E+02  0.11835812836E+03  0.78854309244E+02 0.  0.
        -11    1    5    5    0    0 -0.67074735939E+01 -0.47207079067E+02  0.49164164423E+02  0.68488054283E+02  0.00000000000E+00 0.  1.
         12    1    5    5    0    0 -0.31355703317E+02  0.26976362825E+02  0.27858930470E+02  0.49870074080E+02  0.00000000000E+00 0. -1.
        -13    1    3    3    0    0 -0.48287165521E+01 -0.33427843559E+01  0.83556956167E+00  0.59320221917E+01  0.00000000000E+00 0.  1.
         14    1    3    3    0    0 -0.60125387897E+02 -0.76935608706E+01  0.71374176789E+03  0.71631108074E+03  0.00000000000E+00 0. -1.
          5    1    4    4  501    0 -0.60502594980E+02  0.87729955312E+02 -0.62556256128E+03  0.63459255994E+03  0.47000000000E+01 0. -1.
         -5    1    4    4    0  501  0.16533291568E+02 -0.21419438962E+02 -0.48971940061E+03  0.49048886168E+03  0.47000000000E+01 0. -1.
          1    1    1    2  502    0  0.64579646337E+01  0.95700422170E+02 -0.35847386131E+03  0.37108460673E+03  0.00000000000E+00 0. -1.
          3    1    1    2  503    0  0.14052862014E+03 -0.13074387705E+03  0.59697488612E+03  0.62707357553E+03  0.00000000000E+00 0. -1.
<mgrwt>
<rscale>  0 0.11103093E+03</rscale>
<asrwt>0</asrwt>
<pdfrwt beam="2">  1        2 0.22419274E+00 0.95811317E+02</pdfrwt>
<pdfrwt beam="1">  1        4 0.21166620E+00 0.12866817E+03</pdfrwt>
<totfact> 0.10204339E+00</totfact>
</mgrwt>
</event>
<event>
13    1  0.2101801E-008  0.1829438E+03  0.7546771E-02  0.1250242E+00
          2   -1    0    0  503    0  0.00000000000E+00  0.00000000000E+00  0.10663068768E+04  0.10663068768E+04  0.00000000000E+00 0. -1.
          2   -1    0    0  502    0 -0.00000000000E+00 -0.00000000000E+00 -0.26216447791E+04  0.26216447791E+04  0.00000000000E+00 0. -1.
         24    2    1    2    0    0  0.26568671374E+02 -0.78880589579E+01 -0.96639088966E+03  0.97003122933E+03  0.79253507728E+02 0.  0.
         25    2    1    2    0    0 -0.23463970281E+02 -0.31373931737E+03  0.27337805296E+03  0.43513669234E+03  0.12500185607E+03 0.  0.
         24    2    1    2    0    0  0.17033674332E+03  0.21988216407E+03 -0.17225668971E+03  0.33685327041E+03  0.80218367201E+02 0.  0.
        -13    1    5    5    0    0  0.16749401084E+03  0.19796719230E+03 -0.17736585206E+03  0.31417176571E+03  0.00000000000E+00 0.  1.
         14    1    5    5    0    0  0.28427324825E+01  0.21914971766E+02  0.51091623483E+01  0.22681504698E+02  0.00000000000E+00 0. -1.
        -13    1    3    3    0    0  0.49464147979E+02  0.14319810830E+02 -0.64998500061E+03  0.65202167137E+03  0.00000000000E+00 0.  1.
         14    1    3    3    0    0 -0.22895476605E+02 -0.22207869788E+02 -0.31640588904E+03  0.31800955795E+03  0.00000000000E+00 0. -1.
          5    1    4    4  501    0 -0.54114334498E+02 -0.28874194503E+03  0.26214274703E+03  0.39375269121E+03  0.47000000000E+01 0. -1.
         -5    1    4    4    0  501  0.30650364217E+02 -0.24997372336E+02  0.11235305939E+02  0.41384001134E+02  0.47000000000E+01 0. -1.
          1    1    1    2  502    0  0.81201297705E+01  0.72810353718E+02 -0.13034911246E+04  0.13055483124E+04  0.00000000000E+00 0. -1.
          1    1    1    2  503    0 -0.18156157418E+03  0.28934858537E+02  0.61342274872E+03  0.64038215146E+03  0.00000000000E+00 0. -1.
<mgrwt>
<rscale>  0 0.11577038E+03</rscale>
<asrwt>0</asrwt>
<pdfrwt beam="1">  1        2 0.15680984E+00 0.18294378E+03</pdfrwt>
<pdfrwt beam="2">  1        2 0.38553599E+00 0.73261751E+02</pdfrwt>
<totfact> 0.19288726E+01</totfact>
</mgrwt>
</event>
<event>
13    1  0.2101801E-008  0.1222554E+03  0.7546771E-02  0.1318536E+00
          2   -1    0    0  503    0  0.00000000000E+00  0.00000000000E+00  0.17571739005E+04  0.17571739005E+04  0.00000000000E+00 0. -1.
          2   -1    0    0  502    0 -0.00000000000E+00 -0.00000000000E+00 -0.20925272505E+04  0.20925272505E+04  0.00000000000E+00 0. -1.
         24    2    1    2    0    0 -0.78515168030E+02  0.22121456137E+00 -0.20899326558E+03  0.23627220926E+03  0.77341394247E+02 0.  0.
         25    2    1    2    0    0  0.88040902949E+02  0.23847673827E+02  0.42174153378E+02  0.16039037511E+03  0.12500600416E+03 0.  0.
         24    2    1    2    0    0  0.66020860702E+02 -0.12263456590E+03 -0.57677256836E+03  0.59868772075E+03  0.79764657380E+02 0.  0.
        -13    1    5    5    0    0  0.15550084531E+01  0.68284839221E+01 -0.42752613252E+01  0.82051266512E+01  0.00000000000E+00 0.  1.
         14    1    5    5    0    0  0.64465852249E+02 -0.12946304982E+03 -0.57249730704E+03  0.59048259410E+03  0.00000000000E+00 0. -1.
        -13    1    3    3    0    0  0.14095495984E+02 -0.22217103280E+01 -0.12243167574E+02  0.18801972132E+02  0.00000000000E+00 0.  1.
         14    1    3    3    0    0 -0.92610664014E+02  0.24429248894E+01 -0.19675009800E+03  0.21747023712E+03  0.00000000000E+00 0. -1.
          5    1    4    4  501    0  0.79713465125E+02  0.58035899344E+02  0.64993063663E+02  0.11818879160E+03  0.47000000000E+01 0.  1.
         -5    1    4    4    0  501  0.83274378248E+01 -0.34188225518E+02 -0.22818910285E+02  0.42201583517E+02  0.47000000000E+01 0.  1.
          1    1    1    2  502    0 -0.53249804816E+02 -0.21627668997E+02 -0.12200886842E+04  0.12214416462E+04  0.00000000000E+00 0. -1.
          1    1    1    2  503    0 -0.22296790805E+02  0.12019334651E+03  0.16283270148E+04  0.16329091997E+04  0.00000000000E+00 0. -1.
<mgrwt>
<rscale>  0 0.83824502E+02</rscale>
<asrwt>0</asrwt>
<pdfrwt beam="1">  1        2 0.25840793E+00 0.12225541E+03</pdfrwt>
<pdfrwt beam="2">  1        2 0.30772460E+00 0.57474323E+02</pdfrwt>
<totfact> 0.16142572E+01</totfact>
</mgrwt>
</event>
<event>
13    1  0.2101801E-008  0.1202105E+03  0.7546771E-02  0.1427527E+00
          2   -1    0    0  503    0  0.00000000000E+00  0.00000000000E+00  0.16380048065E+04  0.16380048065E+04  0.00000000000E+00 0. -1.
          2   -1    0    0  502    0 -0.00000000000E+00 -0.00000000000E+00 -0.80344506364E+03  0.80344506364E+03  0.00000000000E+00 0. -1.
         24    2    1    2    0    0  0.27860277877E+02 -0.14846535602E+03 -0.82256396521E+02  0.19102706793E+03  0.83108777468E+02 0.  0.
         25    2    1    2    0    0  0.43977463346E+02 -0.72346329195E+00  0.68840745762E+03  0.70104563333E+03  0.12500244651E+03 0.  0.
         24    2    1    2    0    0 -0.27442997644E+02  0.47095157984E+02 -0.16943290782E+02  0.96002996141E+02  0.77190855290E+02 0.  0.
        -11    1    5    5    0    0 -0.61651247403E+01  0.65669629752E+02 -0.83788673539E+01  0.66488453532E+02  0.00000000000E+00 0.  1.
         12    1    5    5    0    0 -0.21277872904E+02 -0.18574471769E+02 -0.85644234285E+01  0.29514542610E+02  0.00000000000E+00 0. -1.
        -11    1    3    3    0    0  0.33538165276E+02 -0.57724274487E+02  0.23926768047E+01  0.66802883900E+02  0.00000000000E+00 0.  1.
         12    1    3    3    0    0 -0.56778873994E+01 -0.90741081530E+02 -0.84649073326E+02  0.12422418403E+03  0.00000000000E+00 0. -1.
          5    1    4    4  501    0  0.66442694247E+01  0.41313303440E+02  0.54960300016E+03  0.55121364565E+03  0.47000000000E+01 0.  1.
         -5    1    4    4    0  501  0.37333193922E+02 -0.42036766732E+02  0.13880445745E+03  0.14983198769E+03  0.47000000000E+01 0.  1.
          1    1    1    2  502    0 -0.68144002836E+02  0.10318529296E+03 -0.59751286724E+03  0.61017410329E+03  0.00000000000E+00 0. -1.
          1    1    1    2  503    0  0.23749259257E+02 -0.10916316322E+01  0.84286483976E+03  0.84320006942E+03  0.00000000000E+00 0. -1.
<mgrwt>
<rscale>  0 0.53459553E+02</rscale>
<asrwt>0</asrwt>
<pdfrwt beam="1">  1        2 0.24088306E+00 0.23774334E+02</pdfrwt>
<pdfrwt beam="2">  1        2 0.11815369E+00 0.12021047E+03</pdfrwt>
<totfact> 0.93655300E+01</totfact>
</mgrwt>
</event>
<event>
13    1  0.2101801E-008  0.9391489E+02  0.7546771E-02  0.1331660E+00
          2   -1    0    0  503    0  0.00000000000E+00  0.00000000000E+00  0.14808270408E+03  0.14808270408E+03  0.00000000000E+00 0. -1.
          2   -1    0    0  502    0 -0.00000000000E+00 -0.00000000000E+00 -0.21100550169E+04  0.21100550169E+04  0.00000000000E+00 0. -1.
         24    2    1    2    0    0 -0.38316987607E+02 -0.54112810834E+02 -0.51598406471E+03  0.52660358456E+03  0.81703074622E+02 0.  0.
         25    2    1    2    0    0  0.96965502200E+02 -0.68792922461E+02 -0.13158980730E+03  0.21697087910E+03  0.12500284074E+03 0.  0.
         24    2    1    2    0    0 -0.37563254218E+02  0.18362466664E+02 -0.22338352090E+03  0.24026931782E+03  0.77980570851E+02 0.  0.
        -11    1    3    3    0    0 -0.20691194513E+02  0.13735866339E+02 -0.55356611361E+02  0.60672514171E+02  0.00000000000E+00 0.  1.
         12    1    3    3    0    0 -0.17625793094E+02 -0.67848677173E+02 -0.46062745335E+03  0.46593107039E+03  0.00000000000E+00 0. -1.
        -11    1    5    5    0    0  0.67543390188E+01 -0.17846027311E+02 -0.12503065176E+03  0.12647832093E+03  0.00000000000E+00 0.  1.
         12    1    5    5    0    0 -0.44317593237E+02  0.36208493975E+02 -0.98352869135E+02  0.11379099689E+03  0.00000000000E+00 0. -1.
          5    1    4    4  501    0  0.10676299153E+03 -0.89754274633E+02 -0.81542108470E+02  0.16163344836E+03  0.47000000000E+01 0. -1.
         -5    1    4    4    0  501 -0.97974893318E+01  0.20961352172E+02 -0.50047698831E+02  0.55337430735E+02  0.47000000000E+01 0. -1.
          1    1    1    2  502    0  0.48186451956E+02  0.45976861192E+02 -0.11590134838E+04  0.11609255194E+04  0.00000000000E+00 0. -1.
          1    1    1    2  503    0 -0.69271712330E+02  0.58566405439E+02  0.67998563927E+02  0.11336842008E+03  0.00000000000E+00 0. -1.
<mgrwt>
<rscale>  0 0.79087958E+02</rscale>
<asrwt>0</asrwt>
<pdfrwt beam="1">  1        2 0.21776869E-01 0.93914891E+02</pdfrwt>
<pdfrwt beam="2">  1        2 0.31030220E+00 0.66601846E+02</pdfrwt>
<totfact> 0.31958737E+02</totfact>
</mgrwt>
</event>
<event>
13    1  0.2101801E-008  0.8632445E+02  0.7546771E-02  0.1445313E+00
          2   -1    0    0  503    0  0.00000000000E+00  0.00000000000E+00  0.22890273781E+04  0.22890273781E+04  0.00000000000E+00 0. -1.
          2   -1    0    0  502    0 -0.00000000000E+00 -0.00000000000E+00 -0.23803304437E+04  0.23803304437E+04  0.00000000000E+00 0. -1.
         24    2    1    2    0    0  0.12833851008E+04  0.11853489395E+03  0.50266738590E+03  0.13857286204E+04  0.80258772743E+02 0.  0.
         25    2    1    2    0    0 -0.83636409900E+03  0.12748880952E+03  0.13984393380E+03  0.86656747034E+03  0.12499820874E+03 0.  0.
         24    2    1    2    0    0 -0.42023001069E+03 -0.15007973846E+03 -0.12229178735E+03  0.46800221304E+03  0.70381818533E+02 0.  0.
        -11    1    5    5    0    0 -0.28123441687E+03 -0.13322772789E+03 -0.73769234032E+02  0.31981920611E+03  0.00000000000E+00 0.  1.
         12    1    5    5    0    0 -0.13899559382E+03 -0.16852010570E+02 -0.48522553314E+02  0.14818300693E+03  0.00000000000E+00 0. -1.
        -13    1    3    3    0    0  0.10862629779E+04  0.12924042558E+03  0.42416747996E+03  0.11732810388E+04  0.00000000000E+00 0.  1.
         14    1    3    3    0    0  0.19712212281E+03 -0.10705531632E+02  0.78499905941E+02  0.21244758163E+03  0.00000000000E+00 0. -1.
          5    1    4    4  501    0 -0.70290584685E+02  0.46891632183E+02  0.74123525469E+01  0.84950717680E+02  0.47000000000E+01 0.  1.
         -5    1    4    4    0  501 -0.76607351432E+03  0.80597177334E+02  0.13243158125E+03  0.78161675266E+03  0.47000000000E+01 0.  1.
          1    1    1    2  502    0 -0.45169160334E+02 -0.73554004332E+02 -0.12785215211E+04  0.12814319040E+04  0.00000000000E+00 0. -1.
          1    1    1    2  503    0  0.18378169263E+02 -0.22389960667E+02  0.66699892321E+03  0.66762761402E+03  0.00000000000E+00 0. -1.
<mgrwt>
<rscale>  0 0.50005311E+02</rscale>
<asrwt>0</asrwt>
<pdfrwt beam="1">  1        2 0.33662168E+00 0.28966661E+02</pdfrwt>
<pdfrwt beam="2">  1        2 0.35004859E+00 0.86324452E+02</pdfrwt>
<totfact> 0.73964864E+00</totfact>
</mgrwt>
</event>
<event>
13    1  0.2101801E-008  0.1356721E+03  0.7546771E-02  0.1424703E+00
          2   -1    0    0  503    0  0.00000000000E+00  0.00000000000E+00  0.15273512186E+04  0.15273512186E+04  0.00000000000E+00 0. -1.
          2   -1    0    0  502    0 -0.00000000000E+00 -0.00000000000E+00 -0.32998113493E+04  0.32998113493E+04  0.00000000000E+00 0. -1.
         24    2    1    2    0    0 -0.11700419340E+02 -0.21804198227E+03 -0.29991690480E+04  0.30082238384E+04  0.81954120444E+02 0.  0.
         25    2    1    2    0    0 -0.80269703432E+01  0.36726083673E+03  0.47533038711E+03  0.61360728089E+03  0.12501985366E+03 0.  0.
         24    2    1    2    0    0 -0.97171444290E+02 -0.77481635770E+02  0.38727461077E+03  0.41465366685E+03  0.80686714024E+02 0.  0.
        -11    1    5    5    0    0  0.13023855511E+02 -0.22059402219E+01  0.55386244689E+02  0.56939644233E+02  0.00000000000E+00 0.  1.
         12    1    5    5    0    0 -0.11019529980E+03 -0.75275695548E+02  0.33188836608E+03  0.35771402262E+03  0.00000000000E+00 0. -1.
        -11    1    3    3    0    0  0.23335367514E+02 -0.17266918515E+02 -0.32006690986E+03  0.32138063514E+03  0.00000000000E+00 0.  1.
         12    1    3    3    0    0 -0.35035786853E+02 -0.20077506375E+03 -0.26791021381E+04  0.26868432033E+04  0.00000000000E+00 0. -1.
          5    1    4    4  501    0 -0.49232689579E+01  0.23891635008E+03  0.39623927932E+03  0.46274498094E+03  0.47000000000E+01 0.  1.
         -5    1    4    4    0  501 -0.31037013853E+01  0.12834448664E+03  0.79091107788E+02  0.15086229995E+03  0.47000000000E+01 0.  1.
          1    1    1    2  502    0  0.13831429452E+02  0.16490751286E+02 -0.20474511238E+03  0.20587329687E+03  0.00000000000E+00 0. -1.
          1    1    1    2  503    0  0.10306740452E+03 -0.88227969977E+02  0.56884903181E+03  0.58480448489E+03  0.00000000000E+00 0. -1.
<mgrwt>
<rscale>  0 0.54038078E+02</rscale>
<asrwt>0</asrwt>
<pdfrwt beam="1">  1        2 0.22461048E+00 0.13567209E+03</pdfrwt>
<pdfrwt beam="2">  1        2 0.48526637E+00 0.21523320E+02</pdfrwt>
<totfact> 0.62654778E+00</totfact>
</mgrwt>
</event>
<event>
13    1  0.2101801E-008  0.5348184E+02  0.7546771E-02  0.1448482E+00
          2   -1    0    0  502    0  0.00000000000E+00  0.00000000000E+00  0.66952824166E+03  0.66952824166E+03  0.00000000000E+00 0. -1.
          2   -1    0    0  503    0 -0.00000000000E+00 -0.00000000000E+00 -0.45621683750E+03  0.45621683750E+03  0.00000000000E+00 0. -1.
         24    2    1    2    0    0  0.25907148081E+03  0.53352442650E+02  0.25931878569E+02  0.28384561590E+03  0.99656189147E+02 0.  0.
         25    2    1    2    0    0 -0.23773796206E+03 -0.59473221572E+02 -0.41247183829E+02  0.27817785607E+03  0.12500074697E+03 0.  0.
         24    2    1    2    0    0 -0.17249824435E+02  0.32526551577E+02  0.18828958472E+03  0.20770000045E+03  0.79566258382E+02 0.  0.
        -11    1    5    5    0    0  0.19807023525E+02 -0.89464390170E+01  0.16956146846E+02  0.27565700932E+02  0.00000000000E+00 0.  1.
         12    1    5    5    0    0 -0.37056847960E+02  0.41472990594E+02  0.17133343787E+03  0.18013429952E+03  0.00000000000E+00 0. -1.
        -13    1    3    3    0    0  0.21029019765E+03  0.83722919951E+01 -0.52678116803E+01  0.21052271217E+03  0.00000000000E+00 0.  1.
         14    1    3    3    0    0  0.48781283159E+02  0.44980150655E+02  0.31199690249E+02  0.73322903729E+02  0.00000000000E+00 0. -1.
          5    1    4    4  501    0  0.12999220347E+02 -0.87281385391E+01 -0.12750118862E+02  0.20731996117E+02  0.47000000000E+01 0. -1.
         -5    1    4    4    0  501 -0.25073718241E+03 -0.50745083033E+02 -0.28497064967E+02  0.25744585995E+03  0.47000000000E+01 0. -1.
          1    1    1    2  502    0  0.40678518589E+02 -0.35472102961E+02  0.19105696633E+03  0.19853406847E+03  0.00000000000E+00 0. -1.
          1    1    1    2  503    0 -0.44762212902E+02  0.90663303064E+01 -0.15071984163E+03  0.15748753827E+03  0.00000000000E+00 0. -1.
<mgrwt>
<rscale>  0 0.49422435E+02</rscale>
<asrwt>0</asrwt>
<pdfrwt beam="1">  1        2 0.98460036E-01 0.53481837E+02</pdfrwt>
<pdfrwt beam="2">  1        2 0.67090711E-01 0.45671151E+02</pdfrwt>
<totfact> 0.55714709E+02</totfact>
</mgrwt>
</event>
<event>
13    1  0.2101801E-008  0.1180938E+03  0.7546771E-02  0.1253579E+00
          2   -1    0    0  502    0  0.00000000000E+00  0.00000000000E+00  0.22945826721E+04  0.22945826721E+04  0.00000000000E+00 0. -1.
          2   -1    0    0  503    0 -0.00000000000E+00 -0.00000000000E+00 -0.10519379754E+04  0.10519379754E+04  0.00000000000E+00 0. -1.
         24    2    1    2    0    0 -0.12670026542E+03  0.76255138710E+01 -0.41908846410E+03  0.44534369347E+03  0.81146527097E+02 0.  0.
         25    2    1    2    0    0  0.23594993481E+03  0.44002833658E+02 -0.27234516639E+03  0.38393381692E+03  0.12499866005E+03 0.  0.
         24    2    1    2    0    0  0.13236025971E+02 -0.18345033789E+03  0.53802309350E+03  0.57459644718E+03  0.82843280397E+02 0.  0.
        -13    1    5    5    0    0  0.26915023954E+02 -0.76968700650E+02  0.13678528867E+03  0.15924451196E+03  0.00000000000E+00 0.  1.
         14    1    5    5    0    0 -0.13678997983E+02 -0.10648163724E+03  0.40123780484E+03  0.41535193522E+03  0.00000000000E+00 0. -1.
        -13    1    3    3    0    0  0.11287294634E+02 -0.17503435966E+01 -0.47413224595E+02  0.48769668743E+02  0.00000000000E+00 0.  1.
         14    1    3    3    0    0 -0.13798756006E+03  0.93758574677E+01 -0.37167523950E+03  0.39657402473E+03  0.00000000000E+00 0. -1.
          5    1    4    4  501    0  0.15903277171E+03  0.88010283031E+02 -0.17943077893E+03  0.25545004761E+03  0.47000000000E+01 0. -1.
         -5    1    4    4    0  501  0.76917163107E+02 -0.44007449373E+02 -0.92914387457E+02  0.12848376931E+03  0.47000000000E+01 0. -1.
          1    1    1    2  502    0 -0.11590686267E+03  0.22236031707E+02  0.16561406293E+04  0.16603405150E+04  0.00000000000E+00 0. -1.
          1    1    1    2  503    0 -0.65788326961E+01  0.10958595866E+03 -0.26008539558E+03  0.28230617486E+03  0.00000000000E+00 0. -1.
<mgrwt>
<rscale>  0 0.11386272E+03</rscale>
<asrwt>0</asrwt>
<pdfrwt beam="1">  1        2 0.33743863E+00 0.11809377E+03</pdfrwt>
<pdfrwt beam="2">  1        2 0.15469676E+00 0.10978326E+03</pdfrwt>
<totfact> 0.27514002E+01</totfact>
</mgrwt>
</event>
<event>
13    1  0.2101801E-008  0.4943703E+02  0.7546771E-02  0.1456367E+00
          2   -1    0    0  503    0  0.00000000000E+00  0.00000000000E+00  0.14364292759E+04  0.14364292759E+04  0.00000000000E+00 0. -1.
          2   -1    0    0  502    0 -0.00000000000E+00 -0.00000000000E+00 -0.73539392017E+03  0.73539392017E+03  0.00000000000E+00 0. -1.
         24    2    1    2    0    0  0.23286859629E+03 -0.34498347353E+02 -0.69302819020E+01  0.24855918296E+03  0.79471501279E+02 0.  0.
         25    2    1    2    0    0 -0.30308777745E+03  0.32310116453E+01  0.23694604866E+03  0.40452880086E+03  0.12500992151E+03 0.  0.
         24    2    1    2    0    0  0.66841292369E+02  0.31853240450E+02 -0.13216774847E+03  0.17122776489E+03  0.79801293477E+02 0.  0.
        -13    1    3    3    0    0  0.19262593023E+03 -0.28403916297E+02 -0.36693706854E+02  0.19813621471E+03  0.00000000000E+00 0.  1.
         14    1    3    3    0    0  0.40242666064E+02 -0.60944310558E+01  0.29763424952E+02  0.50422968246E+02  0.00000000000E+00 0. -1.
        -13    1    5    5    0    0  0.57647146301E+02 -0.14635989415E+02 -0.57072606108E+02  0.82429897675E+02  0.00000000000E+00 0.  1.
         14    1    5    5    0    0  0.91941460684E+01  0.46489229865E+02 -0.75095142363E+02  0.88797867214E+02  0.00000000000E+00 0. -1.
          5    1    4    4  501    0 -0.93928462901E+02  0.41322920809E+02  0.28157878287E+02  0.10651336084E+03  0.47000000000E+01 0.  1.
         -5    1    4    4    0  501 -0.20915931455E+03 -0.38091909164E+02  0.20878817037E+03  0.29801544002E+03  0.47000000000E+01 0.  1.
          1    1    1    2  502    0  0.46911177104E+02  0.16120541166E+02 -0.36994645125E+03  0.37325715958E+03  0.00000000000E+00 0. -1.
          1    1    1    2  503    0 -0.43533288319E+02 -0.16706445909E+02  0.97313378868E+03  0.97425028775E+03  0.00000000000E+00 0. -1.
<mgrwt>
<rscale>  0 0.48012431E+02</rscale>
<asrwt>0</asrwt>
<pdfrwt beam="1">  1        2 0.21123960E+00 0.46628881E+02</pdfrwt>
<pdfrwt beam="2">  1        2 0.10814616E+00 0.49437033E+02</pdfrwt>
<totfact> 0.12497547E+02</totfact>
</mgrwt>
</event>
<event>
13    1  0.2101801E-008  0.2340221E+03  0.7546771E-02  0.1161419E+00
          2   -1    0    0  503    0  0.00000000000E+00  0.00000000000E+00  0.92558547969E+03  0.92558547969E+03  0.00000000000E+00 0. -1.
          2   -1    0    0  502    0 -0.00000000000E+00 -0.00000000000E+00 -0.15270008523E+04  0.15270008523E+04  0.00000000000E+00 0. -1.
         24    2    1    2    0    0  0.10052360521E+03 -0.15205962580E+02 -0.49859028076E+03  0.51459930372E+03  0.76706967242E+02 0.  0.
         25    2    1    2    0    0  0.50092629584E+02 -0.93034700144E+02 -0.11668554976E+03  0.20100610895E+03  0.12499284517E+03 0.  0.
         24    2    1    2    0    0 -0.22632518973E+03  0.15130763048E+03 -0.18755476808E+03  0.34070857912E+03  0.82392076750E+02 0.  0.
        -11    1    3    3    0    0  0.49266065621E+02  0.23306418746E+02 -0.13834344512E+03  0.14869177242E+03  0.00000000000E+00 0.  1.
         12    1    3    3    0    0  0.51257539592E+02 -0.38512381326E+02 -0.36024683564E+03  0.36590753131E+03  0.00000000000E+00 0. -1.
        -11    1    5    5    0    0 -0.50194653508E+02  0.33814998256E+02 -0.87860449199E+02  0.10668840556E+03  0.00000000000E+00 0.  1.
         12    1    5    5    0    0 -0.17613053622E+03  0.11749263222E+03 -0.99694318876E+02  0.23402017356E+03  0.00000000000E+00 0. -1.
          5    1    4    4  501    0  0.22266384411E+02  0.25073232230E+02 -0.55539630514E+02  0.65047670265E+02  0.47000000000E+01 0.  1.
         -5    1    4    4    0  501  0.27826245173E+02 -0.11810793237E+03 -0.61145919246E+02  0.13595843869E+03  0.47000000000E+01 0.  1.
          1    1    1    2  502    0 -0.14210828316E+03 -0.14362904020E+03 -0.56138283445E+03  0.59663619749E+03  0.00000000000E+00 0. -1.
          1    1    1    2  503    0  0.21781723809E+03  0.10056207245E+03  0.76279806046E+03  0.79963614267E+03  0.00000000000E+00 0. -1.
<mgrwt>
<rscale>  0 0.18675759E+03</rscale>
<asrwt>0</asrwt>
<pdfrwt beam="1">  1        2 0.13611551E+00 0.23402206E+03</pdfrwt>
<pdfrwt beam="2">  1        2 0.22455895E+00 0.14903893E+03</pdfrwt>
<totfact> 0.73483945E+01</totfact>
</mgrwt>
</event>
<event>
13    1  0.2101801E-008  0.1299487E+03  0.7546771E-02  0.1266425E+00
          4   -1    0    0  503    0 -0.00000000000E+00  0.00000000000E+00  0.17414026764E+03  0.17414026764E+03  0.00000000000E+00 0. -1.
          2   -1    0    0  502    0  0.00000000000E+00 -0.00000000000E+00 -0.92300154165E+03  0.92300154165E+03  0.00000000000E+00 0. -1.
         24    2    1    2    0    0  0.40239236337E+02  0.32021201690E+02 -0.38423049681E+02  0.10299345028E+03  0.80540465321E+02 0.  0.
         25    2    1    2    0    0 -0.80542712304E+02  0.16943912644E+03 -0.32680448608E+03  0.39701805332E+03  0.12500166584E+03 0.  0.
         24    2    1    2    0    0  0.52389853019E+02 -0.45210968855E+02 -0.38332193585E+02  0.11252362130E+03  0.80021746308E+02 0.  0.
        -11    1    3    3    0    0 -0.10926940582E+02  0.41101728076E+02 -0.97137140962E+01  0.43624606850E+02  0.00000000000E+00 0.  1.
         12    1    3    3    0    0  0.51166176919E+02 -0.90805263854E+01 -0.28709335584E+02  0.59368843425E+02  0.00000000000E+00 0. -1.
        -13    1    5    5    0    0  0.73230731574E+02 -0.29870062081E+02 -0.34797634838E+02  0.86405069562E+02  0.00000000000E+00 0.  1.
         14    1    5    5    0    0 -0.20840878555E+02 -0.15340906773E+02 -0.35345587470E+01  0.26118551742E+02  0.00000000000E+00 0. -1.
          5    1    4    4  501    0  0.33107745775E+02  0.43689561986E+02 -0.95587872811E+02  0.11029067089E+03  0.47000000000E+01 0.  1.
         -5    1    4    4    0  501 -0.11365045808E+03  0.12574956446E+03 -0.23121661327E+03  0.28672738243E+03  0.47000000000E+01 0.  1.
          1    1    1    2  502    0  0.56349106256E+02 -0.10102900132E+03 -0.37449247555E+03  0.39195241436E+03  0.00000000000E+00 0. -1.
          3    1    1    2  503    0 -0.68435483308E+02 -0.55220357956E+02  0.29190930885E+02  0.92654270027E+02  0.00000000000E+00 0. -1.
<mgrwt>
<rscale>  0 0.10689781E+03</rscale>
<asrwt>0</asrwt>
<pdfrwt beam="2">  1        2 0.13573552E+00 0.12994870E+03</pdfrwt>
<pdfrwt beam="1">  1        4 0.25608863E-01 0.87935791E+02</pdfrwt>
<totfact> 0.22479087E+02</totfact>
</mgrwt>
</event>
<event>
13    1  0.2101801E-008  0.1640287E+03  0.7546771E-02  0.1213804E+00
          2   -1    0    0  503    0  0.00000000000E+00  0.00000000000E+00  0.27956511161E+03  0.27956511161E+03  0.00000000000E+00 0. -1.
          2   -1    0    0  502    0 -0.00000000000E+00 -0.00000000000E+00 -0.10744834125E+04  0.10744834125E+04  0.00000000000E+00 0. -1.
         24    2    1    2    0    0 -0.11136328385E+03 -0.11551937008E+02  0.19157134616E+02  0.13882728542E+03  0.79817235807E+02 0.  0.
         25    2    1    2    0    0 -0.12648432898E+03  0.21553570954E+03 -0.29255264239E+03  0.40455584452E+03  0.12499782080E+03 0.  0.
         24    2    1    2    0    0 -0.39411922187E+02 -0.85870154304E+02 -0.25388928606E+03  0.28271080140E+03  0.80861886218E+02 0.  0.
        -13    1    5    5    0    0 -0.21005841685E+02 -0.95982034843E+02 -0.17114805486E+03  0.19734602373E+03  0.00000000000E+00 0.  1.
         14    1    5    5    0    0 -0.18406080502E+02  0.10111880539E+02 -0.82741231198E+02  0.85364777676E+02  0.00000000000E+00 0. -1.
        -13    1    3    3    0    0 -0.84644823423E+02 -0.44049381746E+02  0.12619948408E+02  0.96251531221E+02  0.00000000000E+00 0.  1.
         14    1    3    3    0    0 -0.26718460426E+02  0.32497444738E+02  0.65371862079E+01  0.42575754198E+02  0.00000000000E+00 0. -1.
          5    1    4    4  501    0 -0.84010119772E+02  0.16188389121E+03 -0.11869547940E+03  0.21765753212E+03  0.47000000000E+01 0.  1.
         -5    1    4    4    0  501 -0.42474209210E+02  0.53651818329E+02 -0.17385716298E+03  0.18689831240E+03  0.47000000000E+01 0.  1.
          1    1    1    2  502    0  0.11657107060E+03 -0.14748636567E+03 -0.30694559011E+03  0.35993976975E+03  0.00000000000E+00 0. -1.
          1    1    1    2  503    0  0.16068846442E+03  0.29372747445E+02  0.39312083030E+02  0.16801482304E+03  0.00000000000E+00 0. -1.
<mgrwt>
<rscale>  0 0.13964762E+03</rscale>
<asrwt>0</asrwt>
<pdfrwt beam="1">  1        2 0.41112517E-01 0.11889049E+03</pdfrwt>
<pdfrwt beam="2">  1        2 0.15801227E+00 0.16402875E+03</pdfrwt>
<totfact> 0.49575745E+02</totfact>
</mgrwt>
</event>
<event>
13    1  0.2101801E-008  0.2077720E+03  0.7546771E-02  0.1257920E+00
          2   -1    0    0  502    0  0.00000000000E+00  0.00000000000E+00  0.44613095596E+04  0.44613095596E+04  0.00000000000E+00 0. -1.
          2   -1    0    0  503    0 -0.00000000000E+00 -0.00000000000E+00 -0.75857058594E+03  0.75857058594E+03  0.00000000000E+00 0. -1.
         24    2    1    2    0    0  0.38022146102E+03 -0.59503454429E+03 -0.31760199954E+03  0.77830639238E+03  0.79090720006E+02 0.  0.
         25    2    1    2    0    0 -0.20792000478E+03  0.30418784115E+03  0.91744488663E+03  0.99653969766E+03  0.12500111168E+03 0.  0.
         24    2    1    2    0    0 -0.38738923710E+03  0.24711408470E+03  0.11901946304E+04  0.12783942748E+04  0.81196501576E+02 0.  0.
        -11    1    5    5    0    0 -0.27052624295E+03  0.13685898028E+03  0.70948817163E+03  0.77154928183E+03  0.00000000000E+00 0.  1.
         12    1    5    5    0    0 -0.11686299416E+03  0.11025510442E+03  0.48070645874E+03  0.50684499300E+03  0.00000000000E+00 0. -1.
        -11    1    3    3    0    0  0.30089931150E+03 -0.43229444559E+03 -0.20555068254E+03  0.56539363848E+03  0.00000000000E+00 0.  1.
         12    1    3    3    0    0  0.79322149521E+02 -0.16274009871E+03 -0.11205131700E+03  0.21291275390E+03  0.00000000000E+00 0. -1.
          5    1    4    4  501    0 -0.83519964390E+02  0.46178083514E+02  0.15538403494E+03  0.18241241231E+03  0.47000000000E+01 0.  1.
         -5    1    4    4    0  501 -0.12440004039E+03  0.25800975764E+03  0.76206085168E+03  0.81412728535E+03  0.47000000000E+01 0.  1.
          1    1    1    2  502    0  0.18465517236E+03  0.95180767248E+02  0.20270195412E+04  0.20376371442E+04  0.00000000000E+00 0. -1.
          1    1    1    2  503    0  0.30432608509E+02 -0.51448148814E+02 -0.11431808495E+03  0.12900263650E+03  0.00000000000E+00 0. -1.
<mgrwt>
<rscale>  0 0.11144317E+03</rscale>
<asrwt>0</asrwt>
<pdfrwt beam="1">  1        2 0.65607492E+00 0.20777201E+03</pdfrwt>
<pdfrwt beam="2">  1        2 0.11155450E+00 0.59775042E+02</pdfrwt>
<totfact> 0.19148002E+00</totfact>
</mgrwt>
</event>
<event>
13    1  0.2101801E-008  0.9276110E+02  0.7546771E-02  0.1312842E+00
          2   -1    0    0  502    0  0.00000000000E+00  0.00000000000E+00  0.38576046514E+04  0.38576046514E+04  0.00000000000E+00 0. -1.
          2   -1    0    0  503    0 -0.00000000000E+00 -0.00000000000E+00 -0.10297333116E+04  0.10297333116E+04  0.00000000000E+00 0. -1.
         24    2    1    2    0    0 -0.16008118780E+03 -0.17028182437E+02 -0.36064791901E+03  0.40313369570E+03  0.80832601317E+02 0.  0.
         25    2    1    2    0    0  0.17907049261E+03  0.63775056972E+01  0.28947250372E+03  0.36266634519E+03  0.12500253445E+03 0.  0.
         24    2    1    2    0    0  0.45958824235E+02 -0.12618262669E+02  0.61263108452E+02  0.11320157912E+03  0.82401425843E+02 0.  0.
        -11    1    5    5    0    0  0.32634165094E+02 -0.40748195940E+02  0.63250056996E+02  0.82012035177E+02  0.00000000000E+00 0.  1.
         12    1    5    5    0    0  0.13324659141E+02  0.28129933271E+02 -0.19869485445E+01  0.31189543946E+02  0.00000000000E+00 0. -1.
        -13    1    3    3    0    0 -0.99834625746E+02  0.47787304822E+01 -0.13135600743E+03  0.16505813960E+03  0.00000000000E+00 0.  1.
         14    1    3    3    0    0 -0.60246562049E+02 -0.21806912920E+02 -0.22929191159E+03  0.23807555609E+03  0.00000000000E+00 0. -1.
          5    1    4    4  501    0  0.24742934515E+02 -0.32491761586E+02  0.12113880273E+02  0.42857478632E+02  0.47000000000E+01 0. -1.
         -5    1    4    4    0  501  0.15432755810E+03  0.38869267284E+02  0.27735862345E+03  0.31980886656E+03  0.47000000000E+01 0. -1.
          1    1    1    2  502    0 -0.21720973921E+02  0.90262221789E+02  0.34197118328E+04  0.34209718047E+04  0.00000000000E+00 0. -1.
          1    1    1    2  503    0 -0.43227155131E+02 -0.66993282380E+02 -0.58192818622E+03  0.58736453820E+03  0.00000000000E+00 0. -1.
<mgrwt>
<rscale>  0 0.85998456E+02</rscale>
<asrwt>0</asrwt>
<pdfrwt beam="1">  1        2 0.56729480E+00 0.92761102E+02</pdfrwt>
<pdfrwt beam="2">  1        2 0.15143137E+00 0.79728833E+02</pdfrwt>
<totfact> 0.41360158E+00</totfact>
</mgrwt>
</event>
<event>
13    1  0.2101801E-008  0.1116721E+03  0.7546771E-02  0.1407351E+00
          2   -1    0    0  502    0  0.00000000000E+00  0.00000000000E+00  0.16585188109E+04  0.16585188109E+04  0.00000000000E+00 0. -1.
          2   -1    0    0  503    0 -0.00000000000E+00 -0.00000000000E+00 -0.11493046063E+04  0.11493046063E+04  0.00000000000E+00 0. -1.
         24    2    1    2    0    0 -0.49003910007E+02 -0.88937612961E+02 -0.20499009343E+03  0.24223352511E+03  0.79654630036E+02 0.  0.
         25    2    1    2    0    0  0.12818955911E+03 -0.38176573215E+02  0.16292224416E+03  0.24507299841E+03  0.12500841211E+03 0.  0.
         24    2    1    2    0    0 -0.88514029966E+02 -0.32680102253E+01 -0.97081491627E+02  0.15437016376E+03  0.80993321031E+02 0.  0.
        -11    1    5    5    0    0 -0.15637901223E+02  0.28408767678E+02 -0.56499320648E+02  0.65144265053E+02  0.00000000000E+00 0.  1.
         12    1    5    5    0    0 -0.72876128744E+02 -0.31676777903E+02 -0.40582170979E+02  0.89225898708E+02  0.00000000000E+00 0. -1.
        -13    1    3    3    0    0  0.12321815791E+02 -0.51328356004E+02 -0.57020972030E+02  0.77703400992E+02  0.00000000000E+00 0.  1.
         14    1    3    3    0    0 -0.61325725798E+02 -0.37609256957E+02 -0.14796912140E+03  0.16453012412E+03  0.00000000000E+00 0. -1.
          5    1    4    4  501    0  0.98414414921E+02 -0.11539512321E+02  0.26265093377E+02  0.10261823687E+03  0.47000000000E+01 0.  1.
         -5    1    4    4    0  501  0.29775144193E+02 -0.26637060894E+02  0.13665715078E+03  0.14245476154E+03  0.47000000000E+01 0.  1.
          1    1    1    2  502    0  0.32398302415E+01 -0.29729365847E+02  0.13986361877E+04  0.13989558668E+04  0.00000000000E+00 0. -1.
          1    1    1    2  503    0  0.60885506179E+01  0.16011156225E+03 -0.75027264218E+03  0.76719086310E+03  0.00000000000E+00 0. -1.
<mgrwt>
<rscale>  0 0.57789235E+02</rscale>
<asrwt>0</asrwt>
<pdfrwt beam="1">  1        2 0.24389983E+00 0.29905379E+02</pdfrwt>
<pdfrwt beam="2">  1        2 0.16901538E+00 0.11167207E+03</pdfrwt>
<totfact> 0.56145971E+01</totfact>
</mgrwt>
</event>
<event>
13    1  0.2101801E-008  0.3320372E+02  0.7546771E-02  0.1587970E+00
         -1   -1    0    0    0  501 -0.00000000000E+00  0.00000000000E+00  0.93762277877E+03  0.93762277877E+03  0.00000000000E+00 0.  1.
          2   -1    0    0  503    0  0.00000000000E+00 -0.00000000000E+00 -0.32682946780E+04  0.32682946780E+04  0.00000000000E+00 0. -1.
         24    2    1    2    0    0 -0.21109630519E+03  0.10139114529E+03  0.47039678490E+03  0.53158060029E+03  0.80392692178E+02 0.  0.
         25    2    1    2    0    0  0.85476775353E+02  0.12621769577E+03 -0.21418512867E+04  0.21509046192E+04  0.12500624186E+03 0.  0.
         24    2    1    2    0    0  0.10234537588E+03 -0.19455003659E+03 -0.50387410806E+02  0.24114541163E+03  0.85369348621E+02 0.  0.
        -11    1    5    5    0    0  0.29752996410E+02 -0.62891041977E+02  0.23748267861E+02  0.73515332977E+02  0.00000000000E+00 0.  1.
         12    1    5    5    0    0  0.72592379471E+02 -0.13165899461E+03 -0.74135678667E+02  0.16763007866E+03  0.00000000000E+00 0. -1.
        -13    1    3    3    0    0 -0.11811838831E+03  0.96788729868E+02  0.32244606414E+03  0.35677931017E+03  0.00000000000E+00 0.  1.
         14    1    3    3    0    0 -0.92977916880E+02  0.46024154229E+01  0.14795072076E+03  0.17480129012E+03  0.00000000000E+00 0. -1.
          5    1    4    4  502    0  0.64936381261E+02  0.32154321785E+02 -0.41056341740E+03  0.41693529922E+03  0.47000000000E+01 0. -1.
         -5    1    4    4    0  502  0.20540394092E+02  0.94063373981E+02 -0.17312878693E+04  0.17339693200E+04  0.47000000000E+01 0. -1.
          1    1    1    2  503    0  0.32692196984E+02 -0.58182688230E+01 -0.94464937389E+03  0.94523281343E+03  0.00000000000E+00 0. -1.
         -2    1    1    2    0  501 -0.94180430311E+01 -0.27240535647E+02  0.33581938727E+03  0.33705401226E+03  0.00000000000E+00 0.  1.
<mgrwt>
<rscale>  0 0.30935739E+02</rscale>
<asrwt>0</asrwt>
<pdfrwt beam="2">  1        2 0.48063158E+00 0.33203723E+02</pdfrwt>
<pdfrwt beam="1">  1       -1 0.13788570E+00 0.28822670E+02</pdfrwt>
<totfact> 0.15699938E+00</totfact>
</mgrwt>
</event>
<event>
13    1  0.2101801E-008  0.7347889E+02  0.7546771E-02  0.1349934E+00
          2   -1    0    0  503    0  0.00000000000E+00  0.00000000000E+00  0.70095193864E+03  0.70095193864E+03  0.00000000000E+00 0. -1.
          2   -1    0    0  502    0 -0.00000000000E+00 -0.00000000000E+00 -0.32142972805E+04  0.32142972805E+04  0.00000000000E+00 0. -1.
         24    2    1    2    0    0  0.24513260249E+01  0.54832559635E+02 -0.10238855926E+04  0.10287203027E+04  0.83133242168E+02 0.  0.
         25    2    1    2    0    0  0.14962627058E+02  0.10542202256E+03 -0.19942291261E+03  0.25833486898E+03  0.12501889221E+03 0.  0.
         24    2    1    2    0    0 -0.40658583899E+02 -0.18931539493E+02  0.32074400914E+03  0.33477290427E+03  0.84762340710E+02 0.  0.
        -11    1    3    3    0    0 -0.31555511889E+01 -0.12286568383E+02 -0.54222524483E+03  0.54237361052E+03  0.00000000000E+00 0.  1.
         12    1    3    3    0    0  0.56068772138E+01  0.67119128017E+02 -0.48166034772E+03  0.48634669217E+03  0.00000000000E+00 0. -1.
        -13    1    5    5    0    0 -0.60815063286E+02  0.71576534464E+01  0.23673304347E+03  0.24452451369E+03  0.00000000000E+00 0.  1.
         14    1    5    5    0    0  0.20156479387E+02 -0.26089192939E+02  0.84010965675E+02  0.90248390585E+02  0.00000000000E+00 0. -1.
          5    1    4    4  501    0  0.26150668702E+02 -0.21178641322E+02 -0.64604325455E+02  0.72994528489E+02  0.47000000000E+01 0. -1.
         -5    1    4    4    0  501 -0.11188041645E+02  0.12660066388E+03 -0.13481858715E+03  0.18534034049E+03  0.47000000000E+01 0. -1.
          1    1    1    2  502    0 -0.22708760558E+01 -0.72639957116E+02 -0.19474832971E+04  0.19488388627E+04  0.00000000000E+00 0. -1.
          1    1    1    2  503    0  0.25515506872E+02 -0.68683085588E+02  0.33670245127E+03  0.34458228049E+03  0.00000000000E+00 0. -1.
<mgrwt>
<rscale>  0 0.73076065E+02</rscale>
<asrwt>0</asrwt>
<pdfrwt beam="1">  1        2 0.10308117E+00 0.73478894E+02</pdfrwt>
<pdfrwt beam="2">  1        2 0.47269077E+00 0.72675445E+02</pdfrwt>
<totfact> 0.16688097E+01</totfact>
</mgrwt>
</event>
<event>
13    1  0.2101801E-008  0.1042711E+03  0.7546771E-02  0.1345650E+00
          2   -1    0    0  502    0  0.00000000000E+00  0.00000000000E+00  0.30419949997E+04  0.30419949997E+04  0.00000000000E+00 0. -1.
          2   -1    0    0  503    0 -0.00000000000E+00 -0.00000000000E+00 -0.61335662642E+03  0.61335662642E+03  0.00000000000E+00 0. -1.
         24    2    1    2    0    0  0.50603514942E+02 -0.57367573889E+02 -0.42863903444E+02  0.11841306356E+03  0.79577541704E+02 0.  0.
         25    2    1    2    0    0  0.11683626338E+03 -0.61900642888E+02  0.76390119536E+03  0.78527298640E+03  0.12500489937E+03 0.  0.
         24    2    1    2    0    0 -0.10501894573E+03 -0.76544298935E+01  0.11540899161E+03  0.17494727838E+03  0.78738463337E+02 0.  0.
        -11    1    5    5    0    0 -0.98993759635E+02  0.17957150674E+02  0.10802532910E+03  0.14762010511E+03  0.00000000000E+00 0.  1.
         12    1    5    5    0    0 -0.60251860905E+01 -0.25611580567E+02  0.73836625174E+01  0.27327173267E+02  0.00000000000E+00 0. -1.
        -11    1    3    3    0    0  0.65637823433E+02 -0.61292092571E+02 -0.22110358136E+02  0.92487363535E+02  0.00000000000E+00 0.  1.
         12    1    3    3    0    0 -0.15034308491E+02  0.39245186813E+01 -0.20753545308E+02  0.25925700020E+02  0.00000000000E+00 0. -1.
          5    1    4    4  501    0  0.39273688716E+01 -0.88192291075E+01  0.40739640318E+03  0.40753787843E+03  0.47000000000E+01 0. -1.
         -5    1    4    4    0  501  0.11290889451E+03 -0.53081413780E+02  0.35650479219E+03  0.37773510798E+03  0.47000000000E+01 0. -1.
          1    1    1    2  502    0 -0.47442496858E+02  0.23909411182E+02  0.20786087944E+04  0.20792876113E+04  0.00000000000E+00 0. -1.
          1    1    1    2  503    0 -0.14978335743E+02  0.10301323549E+03 -0.48641670467E+03  0.49743068644E+03  0.00000000000E+00 0. -1.
<mgrwt>
<rscale>  0 0.74428383E+02</rscale>
<asrwt>0</asrwt>
<pdfrwt beam="1">  1        2 0.44735220E+00 0.53126740E+02</pdfrwt>
<pdfrwt beam="2">  1        2 0.90199505E-01 0.10427111E+03</pdfrwt>
<totfact> 0.25095118E+01</totfact>
</mgrwt>
</event>
<event>
13    1  0.2101801E-008  0.8535942E+02  0.7546771E-02  0.1472614E+00
          4   -1    0    0  503    0 -0.00000000000E+00  0.00000000000E+00  0.21762450467E+03  0.21762450467E+03  0.00000000000E+00 0. -1.
          2   -1    0    0  502    0  0.00000000000E+00 -0.00000000000E+00 -0.30453162829E+04  0.30453162829E+04  0.00000000000E+00 0. -1.
         24    2    1    2    0    0  0.80013131630E+01 -0.64295429566E+02  0.57753789224E+02  0.11865289653E+03  0.80901708318E+02 0.  0.
         25    2    1    2    0    0  0.20261003789E+02  0.13682643194E+03 -0.12457370190E+04  0.12596094787E+04  0.12499334992E+03 0.  0.
         24    2    1    2    0    0  0.10495636395E+02 -0.60773355184E+00 -0.39819849477E+03  0.40656910662E+03  0.81399444079E+02 0.  0.
        -11    1    3    3    0    0 -0.38111845121E+00 -0.11687066585E+01  0.54894126798E+02  0.54907889082E+02  0.00000000000E+00 0.  1.
         12    1    3    3    0    0  0.83824316142E+01 -0.63126722908E+02  0.28596624264E+01  0.63745007444E+02  0.00000000000E+00 0. -1.
        -11    1    5    5    0    0 -0.33483125305E+02  0.45203834659E+01 -0.11263230313E+03  0.11759077028E+03  0.00000000000E+00 0.  1.
         12    1    5    5    0    0  0.43978761701E+02 -0.51281170177E+01 -0.28556619164E+03  0.28897833634E+03  0.00000000000E+00 0. -1.
          5    1    4    4  501    0 -0.39626978705E+02  0.40032595063E+02 -0.20479307405E+03  0.21245046313E+03  0.47000000000E+01 0.  1.
         -5    1    4    4    0  501  0.59887982495E+02  0.96793836874E+02 -0.10409439450E+04  0.10471590156E+04  0.47000000000E+01 0.  1.
          1    1    1    2  502    0 -0.62463706981E+02 -0.68068105493E+02 -0.13570037097E+04  0.13601448635E+04  0.00000000000E+00 0. -1.
          3    1    1    2  503    0  0.23705753634E+02 -0.38551633254E+01  0.11549365602E+03  0.11796444219E+03  0.00000000000E+00 0. -1.
<mgrwt>
<rscale>  0 0.45277950E+02</rscale>
<asrwt>0</asrwt>
<pdfrwt beam="2">  1        2 0.44784060E+00 0.85359422E+02</pdfrwt>
<pdfrwt beam="1">  1        4 0.32003606E-01 0.24017182E+02</pdfrwt>
<totfact> 0.10764132E+01</totfact>
</mgrwt>
</event>
<event>
13    1  0.2101801E-008  0.8826022E+02  0.7546771E-02  0.1319052E+00
          2   -1    0    0  502    0  0.00000000000E+00  0.00000000000E+00  0.11595378268E+04  0.11595378268E+04  0.00000000000E+00 0. -1.
          2   -1    0    0  503    0 -0.00000000000E+00 -0.00000000000E+00 -0.42441572518E+03  0.42441572518E+03  0.00000000000E+00 0. -1.
         24    2    1    2    0    0  0.34070564486E+00 -0.81490103124E+01 -0.17044669926E+03  0.18814654183E+03  0.79249741106E+02 0.  0.
         25    2    1    2    0    0  0.18340188280E+00  0.26944281383E+02  0.54173789799E+03  0.55662411477E+03  0.12499770833E+03 0.  0.
         24    2    1    2    0    0 -0.72207265558E+01  0.22280915553E+01  0.14704789744E+03  0.16807962629E+03  0.81059073202E+02 0.  0.
        -13    1    3    3    0    0  0.24498852710E+02  0.22633317300E+02 -0.40662981934E+02  0.52592194629E+02  0.00000000000E+00 0.  1.
         14    1    3    3    0    0 -0.24158147065E+02 -0.30782327612E+02 -0.12978371732E+03  0.13555434720E+03  0.00000000000E+00 0. -1.
        -13    1    5    5    0    0 -0.18589243182E+02 -0.36116794425E+02  0.62360914403E+02  0.74423561099E+02  0.00000000000E+00 0.  1.
         14    1    5    5    0    0  0.11368516626E+02  0.38344885980E+02  0.84686983042E+02  0.93656065195E+02  0.00000000000E+00 0. -1.
          5    1    4    4  501    0 -0.21917889849E+02  0.73091791763E+02  0.33030888068E+03  0.33904107505E+03  0.47000000000E+01 0. -1.
         -5    1    4    4    0  501  0.22101291732E+02 -0.46147510380E+02  0.21142901731E+03  0.21758303972E+03  0.47000000000E+01 0. -1.
          1    1    1    2  502    0 -0.71033316484E+02  0.35127478437E+02  0.43003973893E+03  0.43728005769E+03  0.00000000000E+00 0. -1.
          1    1    1    2  503    0  0.77729935512E+02 -0.56150841063E+02 -0.21325673347E+03  0.23382321142E+03  0.00000000000E+00 0. -1.
<mgrwt>
<rscale>  0 0.83630892E+02</rscale>
<asrwt>0</asrwt>
<pdfrwt beam="1">  1        2 0.17052027E+00 0.79244380E+02</pdfrwt>
<pdfrwt beam="2">  1        2 0.62414078E-01 0.88260215E+02</pdfrwt>
<totfact> 0.29838670E+02</totfact>
</mgrwt>
</event>
<event>
13    1  0.2101801E-008  0.7034971E+02  0.7546771E-02  0.1397943E+00
         -3   -1    0    0    0  501 -0.00000000000E+00  0.00000000000E+00  0.24762571166E+04  0.24762571166E+04  0.00000000000E+00 0.  1.
          2   -1    0    0  503    0  0.00000000000E+00 -0.00000000000E+00 -0.16264372425E+04  0.16264372425E+04  0.00000000000E+00 0. -1.
         24    2    1    2    0    0  0.42989928690E+02 -0.10116989335E+02 -0.33756371904E+01  0.88968623465E+02  0.77159144584E+02 0.  0.
         25    2    1    2    0    0 -0.20719014279E+03  0.34960780389E+02 -0.10917033100E+03  0.26775312644E+03  0.12499425633E+03 0.  0.
         24    2    1    2    0    0  0.70163494458E+02 -0.36907199794E+02 -0.10882735871E+03  0.15725601068E+03  0.81246547862E+02 0.  0.
        -11    1    3    3    0    0  0.56448695436E+02  0.11810442542E+02  0.12124773172E+02  0.58931756244E+02  0.00000000000E+00 0.  1.
         12    1    3    3    0    0 -0.13458766747E+02 -0.21927431878E+02 -0.15500410362E+02  0.30036867221E+02  0.00000000000E+00 0. -1.
        -13    1    5    5    0    0  0.37044038977E+02 -0.56849585935E+02 -0.41269367948E+02  0.79418492654E+02  0.00000000000E+00 0.  1.
         14    1    5    5    0    0  0.33119455481E+02  0.19942386140E+02 -0.67557990761E+02  0.77837518023E+02  0.00000000000E+00 0. -1.
          5    1    4    4  502    0 -0.86852264777E+02  0.31164962575E+02  0.16274082547E+02  0.93816344801E+02  0.47000000000E+01 0.  1.
         -5    1    4    4    0  502 -0.12033787801E+03  0.37958178136E+01 -0.12544441355E+03  0.17393678164E+03  0.47000000000E+01 0.  1.
          1    1    1    2  503    0  0.63907817007E+02 -0.29243753444E+02 -0.12574998758E+04  0.12594623233E+04  0.00000000000E+00 0. -1.
         -4    1    1    2    0  501  0.30128902633E+02  0.41307162185E+02  0.23286930768E+04  0.23292542752E+04  0.00000000000E+00 0.  1.
<mgrwt>
<rscale>  0 0.59973433E+02</rscale>
<asrwt>0</asrwt>
<pdfrwt beam="2">  1        2 0.23918195E+00 0.70349715E+02</pdfrwt>
<pdfrwt beam="1">  1       -3 0.36415546E+00 0.51127609E+02</pdfrwt>
<totfact> 0.21037212E-01</totfact>
</mgrwt>
</event>
<event>
13    1  0.2101801E-008  0.7404355E+02  0.7546771E-02  0.1403468E+00
          2   -1    0    0  503    0  0.00000000000E+00  0.00000000000E+00  0.16411570460E+04  0.16411570460E+04  0.00000000000E+00 0. -1.
          2   -1    0    0  502    0 -0.00000000000E+00 -0.00000000000E+00 -0.31657053651E+04  0.31657053651E+04  0.00000000000E+00 0. -1.
         24    2    1    2    0    0 -0.50787988233E+02  0.11196046054E+03 -0.10841113584E+04  0.10939155252E+04  0.78988444050E+02 0.  0.
         25    2    1    2    0    0  0.42280811856E+02 -0.59862477231E+02  0.13903726414E+02  0.14556411036E+03  0.12499765352E+03 0.  0.
         24    2    1    2    0    0  0.53888430231E+02 -0.74044555170E+02 -0.26494626413E+03  0.29244030468E+03  0.83296157534E+02 0.  0.
        -11    1    5    5    0    0  0.67711156880E+02 -0.69753431491E+02 -0.16544277844E+03  0.19188969464E+03  0.00000000000E+00 0.  1.
         12    1    5    5    0    0 -0.13822726649E+02 -0.42911236789E+01 -0.99503485693E+02  0.10055061004E+03  0.00000000000E+00 0. -1.
        -11    1    3    3    0    0 -0.18083865936E+02 -0.79744806181E+00 -0.35066871611E+03  0.35113560143E+03  0.00000000000E+00 0.  1.
         12    1    3    3    0    0 -0.32704122297E+02  0.11275790861E+03 -0.73344264231E+03  0.74277992375E+03  0.00000000000E+00 0. -1.
          5    1    4    4  501    0  0.34824285418E+02 -0.78002861742E+02  0.53657373094E+02  0.10098703373E+03  0.47000000000E+01 0. -1.
         -5    1    4    4    0  501  0.74565264387E+01  0.18140384511E+02 -0.39753646680E+02  0.44577076632E+02  0.47000000000E+01 0. -1.
          1    1    1    2  502    0 -0.12975742282E+02 -0.44652935349E+02 -0.17309671132E+04  0.17315915805E+04  0.00000000000E+00 0. -1.
          1    1    1    2  503    0 -0.32405511573E+02  0.66599507208E+02  0.15415726903E+04  0.15433508904E+04  0.00000000000E+00 0. -1.
<mgrwt>
<rscale>  0 0.58677326E+02</rscale>
<asrwt>0</asrwt>
<pdfrwt beam="1">  1        2 0.24134663E+00 0.74043548E+02</pdfrwt>
<pdfrwt beam="2">  1        2 0.46554490E+00 0.46500049E+02</pdfrwt>
<totfact> 0.58581338E+00</totfact>
</mgrwt>
</event>
<event>
13    1  0.2101801E-008  0.7759129E+02  0.7546771E-02  0.1363728E+00
          2   -1    0    0  502    0  0.00000000000E+00  0.00000000000E+00  0.24565038329E+04  0.24565038329E+04  0.00000000000E+00 0. -1.
          2   -1    0    0  503    0 -0.00000000000E+00 -0.00000000000E+00 -0.18954840396E+04  0.18954840396E+04  0.00000000000E+00 0. -1.
         24    2    1    2    0    0 -0.38722283962E+02  0.61577908265E+02 -0.17565075406E+03  0.20931673744E+03  0.87573141471E+02 0.  0.
         25    2    1    2    0    0 -0.15559086662E+03  0.61898277030E+02  0.22437675290E+04  0.22534769262E+04  0.12500247401E+03 0.  0.
         24    2    1    2    0    0  0.75021785387E+02 -0.55763576845E+02  0.30711037954E+02  0.12905151899E+03  0.83506178914E+02 0.  0.
        -11    1    5    5    0    0  0.59128512876E+02 -0.69515009355E+02 -0.69354626509E+00  0.91263347336E+02  0.00000000000E+00 0.  1.
         12    1    5    5    0    0  0.15893272512E+02  0.13751432510E+02  0.31404584219E+02  0.37788171657E+02  0.00000000000E+00 0. -1.
        -13    1    3    3    0    0 -0.34978308376E+02 -0.10892382591E+02 -0.89302775203E+02  0.96525186942E+02  0.00000000000E+00 0.  1.
         14    1    3    3    0    0 -0.37439755864E+01  0.72470290856E+02 -0.86347978862E+02  0.11279155050E+03  0.00000000000E+00 0. -1.
          5    1    4    4  501    0 -0.16253677986E+03  0.18597641557E+02  0.16615144305E+04  0.16695557403E+04  0.47000000000E+01 0. -1.
         -5    1    4    4    0  501  0.69459132453E+01  0.43300635473E+02  0.58225309845E+03  0.58392118595E+03  0.47000000000E+01 0. -1.
          1    1    1    2  502    0  0.57707242514E+02 -0.20550457456E+02  0.10174146944E+03  0.11875931014E+03  0.00000000000E+00 0. -1.
          1    1    1    2  503    0  0.61584122678E+02 -0.47162150994E+02 -0.16395494889E+04  0.16413833797E+04  0.00000000000E+00 0. -1.
<mgrwt>
<rscale>  0 0.68942200E+02</rscale>
<asrwt>0</asrwt>
<pdfrwt beam="1">  1        2 0.36125056E+00 0.61257221E+02</pdfrwt>
<pdfrwt beam="2">  1        2 0.27874765E+00 0.77591292E+02</pdfrwt>
<totfact> 0.96253235E+00</totfact>
</mgrwt>
</event>
<event>
13    1  0.2101801E-008  0.1294008E+03  0.7546771E-02  0.1299207E+00
          2   -1    0    0  503    0  0.00000000000E+00  0.00000000000E+00  0.32725302907E+04  0.32725302907E+04  0.00000000000E+00 0. -1.
          2   -1    0    0  502    0 -0.00000000000E+00 -0.00000000000E+00 -0.10682055286E+04  0.10682055286E+04  0.00000000000E+00 0. -1.
         24    2    1    2    0    0 -0.27164425913E+02  0.71634259205E+03  0.89369103077E+03  0.11498082820E+04  0.97420797207E+02 0.  0.
         25    2    1    2    0    0  0.23556158017E+03 -0.11640669270E+04  0.10155333427E+04  0.15676301440E+04  0.12496091226E+03 0.  0.
         24    2    1    2    0    0 -0.16000557387E+03  0.40261116692E+03  0.21546950898E+03  0.49027398093E+03  0.79018552758E+02 0.  0.
        -11    1    3    3    0    0 -0.50717432723E+02  0.54641376206E+03  0.63323265398E+03  0.83792830923E+03  0.00000000000E+00 0.  1.
         12    1    3    3    0    0  0.23553006810E+02  0.16992882999E+03  0.26045837679E+03  0.31187997280E+03  0.00000000000E+00 0. -1.
        -11    1    5    5    0    0 -0.77945746191E+02  0.13789074982E+03  0.11391921669E+03  0.19510762714E+03  0.00000000000E+00 0.  1.
         12    1    5    5    0    0 -0.82059827675E+02  0.26472041710E+03  0.10155029229E+03  0.29516635379E+03  0.00000000000E+00 0. -1.
          5    1    4    4  501    0  0.14236578330E+03 -0.66868881456E+03  0.66405825026E+03  0.95310450461E+03  0.47000000000E+01 0.  1.
         -5    1    4    4    0  501  0.93195796869E+02 -0.49537811241E+03  0.35147509244E+03  0.61452563935E+03  0.47000000000E+01 0.  1.
          1    1    1    2  502    0  0.55233891494E+02 -0.33754802064E+02 -0.51766493779E+03  0.52169642250E+03  0.00000000000E+00 0. -1.
          1    1    1    2  503    0 -0.10362547189E+03  0.78867970060E+02  0.59729581737E+03  0.61132698989E+03  0.00000000000E+00 0. -1.
<mgrwt>
<rscale>  0 0.91522192E+02</rscale>
<asrwt>0</asrwt>
<pdfrwt beam="1">  1        2 0.48125445E+00 0.12940082E+03</pdfrwt>
<pdfrwt beam="2">  1        2 0.15708905E+00 0.64731518E+02</pdfrwt>
<totfact> 0.84260935E+00</totfact>
</mgrwt>
</event>
<event>
13    1  0.2101801E-008  0.1930254E+03  0.7546771E-02  0.1217830E+00
          2   -1    0    0  502    0  0.00000000000E+00  0.00000000000E+00  0.20182740272E+04  0.20182740272E+04  0.00000000000E+00 0. -1.
          2   -1    0    0  503    0 -0.00000000000E+00 -0.00000000000E+00 -0.12842374195E+04  0.12842374195E+04  0.00000000000E+00 0. -1.
         24    2    1    2    0    0  0.11697196400E+03  0.10841051740E+02 -0.20344811645E+03  0.24692316365E+03  0.76025942232E+02 0.  0.
         25    2    1    2    0    0  0.97428318974E+01 -0.18920653310E+03  0.29069375823E+03  0.36881191570E+03  0.12500133256E+03 0.  0.
         24    2    1    2    0    0 -0.82111310330E+02  0.30634285576E+02 -0.36988241534E+02  0.12210126763E+03  0.76549740751E+02 0.  0.
        -11    1    5    5    0    0 -0.38274734890E+01  0.31382115530E+02 -0.29865293907E+02  0.43490487564E+02  0.00000000000E+00 0.  1.
         12    1    5    5    0    0 -0.78283836841E+02 -0.74782995389E+00 -0.71229476268E+01  0.78610780069E+02  0.00000000000E+00 0. -1.
        -13    1    3    3    0    0  0.29904404685E+02  0.32352375813E+02 -0.35699160526E+02  0.56704318200E+02  0.00000000000E+00 0.  1.
         14    1    3    3    0    0  0.87067559316E+02 -0.21511324072E+02 -0.16774895593E+03  0.19021884545E+03  0.00000000000E+00 0. -1.
          5    1    4    4  501    0 -0.27730874685E+02 -0.17845041462E+03  0.26875943546E+03  0.32383217264E+03  0.47000000000E+01 0. -1.
         -5    1    4    4    0  501  0.37473706582E+02 -0.10756118484E+02  0.21934322768E+02  0.44979743053E+02  0.47000000000E+01 0. -1.
          1    1    1    2  502    0  0.42628731114E+02  0.18974072515E+03  0.16158896038E+04  0.16275496807E+04  0.00000000000E+00 0. -1.
          1    1    1    2  503    0 -0.87232216682E+02 -0.42009529364E+02 -0.93211039624E+03  0.93712541902E+03  0.00000000000E+00 0. -1.
<mgrwt>
<rscale>  0 0.13670721E+03</rscale>
<asrwt>0</asrwt>
<pdfrwt beam="1">  1        2 0.29680500E+00 0.19302535E+03</pdfrwt>
<pdfrwt beam="2">  1        2 0.18885844E+00 0.96820763E+02</pdfrwt>
<totfact> 0.26988806E+01</totfact>
</mgrwt>
</event>
<event>
13    1  0.2101801E-008  0.8094250E+02  0.7546771E-02  0.1327076E+00
          2   -1    0    0  503    0  0.00000000000E+00  0.00000000000E+00  0.38545713723E+04  0.38545713723E+04  0.00000000000E+00 0. -1.
          2   -1    0    0  502    0 -0.00000000000E+00 -0.00000000000E+00 -0.29895272231E+03  0.29895272231E+03  0.00000000000E+00 0. -1.
         24    2    1    2    0    0 -0.41844237261E+02 -0.23437686207E+02 -0.88901768139E+02  0.12808126890E+03  0.78746566512E+02 0.  0.
         25    2    1    2    0    0  0.54159095298E+02 -0.86674911348E+02  0.18646771522E+03  0.24667198947E+03  0.12502445246E+03 0.  0.
         24    2    1    2    0    0 -0.51995773364E+02  0.68770561713E+02  0.15103165965E+04  0.15149382500E+04  0.80924217692E+02 0.  0.
        -13    1    5    5    0    0 -0.26335587464E+01  0.65809420439E+02  0.10233558898E+04  0.10254731068E+04  0.00000000000E+00 0.  1.
         14    1    5    5    0    0 -0.49362214617E+02  0.29611412744E+01  0.48696070668E+03  0.48946514323E+03  0.00000000000E+00 0. -1.
        -13    1    3    3    0    0 -0.14444841765E+02 -0.41592560308E+02 -0.84013022291E+02  0.94851370265E+02  0.00000000000E+00 0.  1.
         14    1    3    3    0    0 -0.27399395496E+02  0.18154874101E+02 -0.48887458479E+01  0.33229898633E+02  0.00000000000E+00 0. -1.
          5    1    4    4  501    0  0.18707896108E+02 -0.89723587046E+02  0.18960127326E+03  0.21064434546E+03  0.47000000000E+01 0.  1.
         -5    1    4    4    0  501  0.35451199191E+02  0.30486756975E+01 -0.31335580461E+01  0.36027644019E+02  0.47000000000E+01 0.  1.
          1    1    1    2  502    0  0.96004105679E+02 -0.16790453318E+02 -0.14216493910E+03  0.17236466441E+03  0.00000000000E+00 0. -1.
          1    1    1    2  503    0 -0.56323190353E+02  0.58132489160E+02  0.20899010455E+04  0.20914679218E+04  0.00000000000E+00 0. -1.
<mgrwt>
<rscale>  0 0.80700190E+02</rscale>
<asrwt>0</asrwt>
<pdfrwt beam="1">  1        2 0.56684870E+00 0.80942499E+02</pdfrwt>
<pdfrwt beam="2">  1        2 0.43963638E-01 0.80458607E+02</pdfrwt>
<totfact> 0.17016851E+01</totfact>
</mgrwt>
</event>
<event>
13    1  0.2101801E-008  0.5109748E+02  0.7546771E-02  0.1462087E+00
          2   -1    0    0  502    0  0.00000000000E+00  0.00000000000E+00  0.14823127624E+04  0.14823127624E+04  0.00000000000E+00 0. -1.
          2   -1    0    0  503    0 -0.00000000000E+00 -0.00000000000E+00 -0.43634268264E+03  0.43634268264E+03  0.00000000000E+00 0. -1.
         24    2    1    2    0    0  0.11209739783E+02  0.38585217583E+02 -0.36452876119E+02  0.96922149029E+02  0.80315711497E+02 0.  0.
         25    2    1    2    0    0 -0.35199531315E+01 -0.66583327878E+02  0.30919744655E+03  0.34010855684E+03  0.12500015944E+03 0.  0.
         24    2    1    2    0    0  0.34199260009E+01 -0.70356805194E+01  0.58553209881E+01  0.70621935242E+02  0.69942664084E+02 0.  0.
        -13    1    3    3    0    0 -0.20423343946E+02  0.26393950555E+02  0.13956420975E+02  0.36173682288E+02  0.00000000000E+00 0.  1.
         14    1    3    3    0    0  0.31633083729E+02  0.12191267028E+02 -0.50409297094E+02  0.60748466742E+02  0.00000000000E+00 0. -1.
        -13    1    5    5    0    0 -0.64155005496E+01 -0.34247745014E+02 -0.11726858769E+02  0.36763921205E+02  0.00000000000E+00 0.  1.
         14    1    5    5    0    0  0.98354265505E+01  0.27212064494E+02  0.17582179757E+02  0.33858014036E+02  0.00000000000E+00 0. -1.
          5    1    4    4  501    0  0.27298478307E+02 -0.39983741827E+02  0.28377348592E+02  0.56314034143E+02  0.47000000000E+01 0. -1.
         -5    1    4    4    0  501 -0.30818431439E+02 -0.26599586051E+02  0.28082009796E+03  0.28379452270E+03  0.47000000000E+01 0. -1.
          1    1    1    2  502    0 -0.49178337685E+02  0.14453766850E+02  0.10871250492E+04  0.10883328043E+04  0.00000000000E+00 0. -1.
          1    1    1    2  503    0  0.38068625033E+02  0.20580023965E+02 -0.31975486088E+03  0.32266999962E+03  0.00000000000E+00 0. -1.
<mgrwt>
<rscale>  0 0.47024062E+02</rscale>
<asrwt>0</asrwt>
<pdfrwt beam="1">  1        2 0.21798717E+00 0.51097483E+02</pdfrwt>
<pdfrwt beam="2">  1        2 0.64168042E-01 0.43275369E+02</pdfrwt>
<totfact> 0.20630998E+02</totfact>
</mgrwt>
</event>
<event>
13    1  0.2101801E-008  0.1400227E+03  0.7546771E-02  0.1377315E+00
         -1   -1    0    0    0  501 -0.00000000000E+00  0.00000000000E+00  0.34810312070E+03  0.34810312070E+03  0.00000000000E+00 0.  1.
          2   -1    0    0  503    0  0.00000000000E+00 -0.00000000000E+00 -0.29175695114E+04  0.29175695114E+04  0.00000000000E+00 0. -1.
         24    2    1    2    0    0 -0.54328849929E+02 -0.52604823381E+02  0.37154449708E+01  0.10887583344E+03  0.78238425331E+02 0.  0.
         25    2    1    2    0    0 -0.11168260427E+03  0.82329486984E+02 -0.85517817770E+03  0.87533179134E+03  0.12499952322E+03 0.  0.
         24    2    1    2    0    0 -0.39807101946E+02  0.68879413275E+02 -0.21208640521E+03  0.24038413385E+03  0.80466822935E+02 0.  0.
        -11    1    3    3    0    0 -0.58569031318E+02 -0.38463124179E+02 -0.26765553623E+02  0.75007587695E+02  0.00000000000E+00 0.  1.
         12    1    3    3    0    0  0.42401813888E+01 -0.14141699202E+02  0.30480998594E+02  0.33868245745E+02  0.00000000000E+00 0. -1.
        -13    1    5    5    0    0 -0.15667115385E+02  0.68744344353E+02 -0.82301982017E+02  0.10837370359E+03  0.00000000000E+00 0.  1.
         14    1    5    5    0    0 -0.24139986561E+02  0.13506892184E+00 -0.12978442319E+03  0.13201043026E+03  0.00000000000E+00 0. -1.
          5    1    4    4  502    0 -0.18146394526E+02  0.25075870447E+01 -0.48235096188E+03  0.48272157612E+03  0.47000000000E+01 0.  1.
         -5    1    4    4    0  502 -0.93536209746E+02  0.79821899939E+02 -0.37282721582E+03  0.39261021522E+03  0.47000000000E+01 0.  1.
          1    1    1    2  503    0  0.26072054584E+02 -0.15508996492E+02 -0.17367114358E+04  0.17369763649E+04  0.00000000000E+00 0. -1.
         -2    1    1    2    0  501  0.17974650156E+03 -0.83095080386E+02  0.23079418303E+03  0.30410450856E+03  0.00000000000E+00 0.  1.
<mgrwt>
<rscale>  0 0.65174740E+02</rscale>
<asrwt>0</asrwt>
<pdfrwt beam="2">  1        2 0.42905432E+00 0.30336134E+02</pdfrwt>
<pdfrwt beam="1">  1       -1 0.51191637E-01 0.14002268E+03</pdfrwt>
<totfact> 0.17699828E+01</totfact>
</mgrwt>
</event>
<event>
13    1  0.2101801E-008  0.5168974E+02  0.7546771E-02  0.1448783E+00
          2   -1    0    0  503    0  0.00000000000E+00  0.00000000000E+00  0.27737523784E+04  0.27737523784E+04  0.00000000000E+00 0. -1.
          2   -1    0    0  502    0 -0.00000000000E+00 -0.00000000000E+00 -0.18721933272E+04  0.18721933272E+04  0.00000000000E+00 0. -1.
         24    2    1    2    0    0  0.13379683273E+03  0.39337215563E+03 -0.70097317600E+02  0.42886221166E+03  0.79786699269E+02 0.  0.
         25    2    1    2    0    0 -0.16530378685E+03 -0.14580298233E+03 -0.20627654978E+03  0.32673446870E+03  0.12498618501E+03 0.  0.
         24    2    1    2    0    0  0.29559359988E+02 -0.24246290512E+03 -0.12393211170E+03  0.28506347320E+03  0.78993666326E+02 0.  0.
        -11    1    5    5    0    0  0.45816828962E+00 -0.19289462704E+03 -0.12058901599E+03  0.22748683003E+03  0.00000000000E+00 0.  1.
         12    1    5    5    0    0  0.29101191698E+02 -0.49568278077E+02 -0.33430957152E+01  0.57576643170E+02  0.00000000000E+00 0. -1.
        -11    1    3    3    0    0  0.10985801900E+03  0.28730631089E+03 -0.17541326083E+02  0.30809316567E+03  0.00000000000E+00 0.  1.
         12    1    3    3    0    0  0.23938813736E+02  0.10606584474E+03 -0.52555991517E+02  0.12076904598E+03  0.00000000000E+00 0. -1.
          5    1    4    4  501    0 -0.17072927175E+03 -0.16152774573E+03 -0.18393104250E+03  0.29848352596E+03  0.47000000000E+01 0. -1.
         -5    1    4    4    0  501  0.54254848992E+01  0.15724763398E+02 -0.22345507278E+02  0.28250942742E+02  0.47000000000E+01 0. -1.
          1    1    1    2  502    0  0.40469936984E+02 -0.32293180897E+02 -0.11509016884E+04  0.11520656933E+04  0.00000000000E+00 0. -1.
          1    1    1    2  503    0 -0.38522342854E+02  0.27186912718E+02  0.24527667187E+04  0.24532198588E+04  0.00000000000E+00 0. -1.
<mgrwt>
<rscale>  0 0.49367585E+02</rscale>
<asrwt>0</asrwt>
<pdfrwt beam="1">  1        2 0.40790476E+00 0.47149752E+02</pdfrwt>
<pdfrwt beam="2">  1        2 0.27532255E+00 0.51689740E+02</pdfrwt>
<totfact> 0.74785938E+00</totfact>
</mgrwt>
</event>
<event>
13    1  0.2101801E-008  0.2000641E+03  0.7546771E-02  0.1228672E+00
          2   -1    0    0  502    0  0.00000000000E+00  0.00000000000E+00  0.29505521586E+04  0.29505521586E+04  0.00000000000E+00 0. -1.
          2   -1    0    0  503    0 -0.00000000000E+00 -0.00000000000E+00 -0.26589954192E+04  0.26589954192E+04  0.00000000000E+00 0. -1.
         24    2    1    2    0    0 -0.15246219133E+03  0.24078244119E+03 -0.31509989301E+03  0.43266883447E+03  0.81813654008E+02 0.  0.
         25    2    1    2    0    0  0.31045922165E+03 -0.10780447577E+03 -0.12743893335E+02  0.35184500087E+03  0.12500305802E+03 0.  0.
         24    2    1    2    0    0  0.90112307032E+02 -0.81310593031E+01  0.95993311891E+03  0.96765818924E+03  0.81880622953E+02 0.  0.
        -11    1    3    3    0    0 -0.60625566354E+02  0.15931455190E+03 -0.15094335318E+03  0.22768504916E+03  0.00000000000E+00 0.  1.
         12    1    3    3    0    0 -0.91836624978E+02  0.81467889283E+02 -0.16415653983E+03  0.20498378531E+03  0.00000000000E+00 0. -1.
        -13    1    5    5    0    0  0.13080908443E+02 -0.28794435487E+02  0.12555298740E+03  0.12947502588E+03  0.00000000000E+00 0.  1.
         14    1    5    5    0    0  0.77031398589E+02  0.20663376184E+02  0.83438013151E+03  0.83818316336E+03  0.00000000000E+00 0. -1.
          5    1    4    4  501    0  0.28956998908E+03 -0.12018175989E+03 -0.38769788750E+02  0.31594243227E+03  0.47000000000E+01 0. -1.
         -5    1    4    4    0  501  0.20889232571E+02  0.12377284128E+02  0.26025895415E+02  0.35902568598E+02  0.47000000000E+01 0. -1.
          1    1    1    2  502    0 -0.12887058935E+03  0.35775021137E+02  0.17510993095E+04  0.17561993829E+04  0.00000000000E+00 0. -1.
          1    1    1    2  503    0 -0.11923874800E+03 -0.16062192726E+03 -0.20916319026E+04  0.21011761703E+04  0.00000000000E+00 0. -1.
<mgrwt>
<rscale>  0 0.12918387E+03</rscale>
<asrwt>0</asrwt>
<pdfrwt beam="1">  1        2 0.43390473E+00 0.83415617E+02</pdfrwt>
<pdfrwt beam="2">  1        2 0.39102874E+00 0.20006412E+03</pdfrwt>
<totfact> 0.19545466E+00</totfact>
</mgrwt>
</event>
<event>
13    1  0.2439239E-008  0.3514926E+03  0.7546771E-02  0.1245727E+00
          2   -1    0    0  502    0  0.00000000000E+00  0.00000000000E+00  0.38205301234E+04  0.38205301234E+04  0.00000000000E+00 0. -1.
          2   -1    0    0  503    0 -0.00000000000E+00 -0.00000000000E+00 -0.29485320130E+04  0.29485320130E+04  0.00000000000E+00 0. -1.
         24    2    1    2    0    0 -0.32305347545E+02  0.23353130919E+03 -0.76167588667E+03  0.80123628713E+03  0.79050133648E+02 0.  0.
         25    2    1    2    0    0 -0.81159711435E+02 -0.57765785783E+03  0.34531465221E+03  0.68930589297E+03  0.12499962230E+03 0.  0.
         24    2    1    2    0    0 -0.87266176789E+02  0.68001081558E+02  0.29721825781E+04  0.29752742765E+04  0.78410520772E+02 0.  0.
        -13    1    5    5    0    0 -0.22278056846E+02  0.63949659894E+01  0.16037936895E+03  0.16204551642E+03  0.00000000000E+00 0.  1.
         14    1    5    5    0    0 -0.64988119944E+02  0.61606115569E+02  0.28118032092E+04  0.28132287601E+04  0.00000000000E+00 0. -1.
        -13    1    3    3    0    0  0.83862032070E+01  0.53546970888E+01 -0.81247729107E+01  0.12845743264E+02  0.00000000000E+00 0.  1.
         14    1    3    3    0    0 -0.40691550752E+02  0.22817661210E+03 -0.75355111376E+03  0.78839054387E+03  0.00000000000E+00 0. -1.
          5    1    4    4  501    0 -0.36232754479E+02 -0.95086788036E+02  0.15462768258E+02  0.10303153381E+03  0.47000000000E+01 0. -1.
         -5    1    4    4    0  501 -0.44926956957E+02 -0.48257106980E+03  0.32985188396E+03  0.58627435916E+03  0.47000000000E+01 0. -1.
          1    1    1    2  502    0  0.24217627308E+02  0.31705127730E+02  0.29697048192E+03  0.29963840830E+03  0.00000000000E+00 0. -1.
          1    1    1    2  503    0  0.17651360846E+03  0.24442033936E+03 -0.19807937152E+04  0.20036072715E+04  0.00000000000E+00 0. -1.
<mgrwt>
<rscale>  0 0.11841971E+03</rscale>
<asrwt>0</asrwt>
<pdfrwt beam="1">  1        2 0.56184267E+00 0.39896223E+02</pdfrwt>
<pdfrwt beam="2">  1        2 0.43360765E+00 0.35149262E+03</pdfrwt>
<totfact> 0.47188478E-01</totfact>
</mgrwt>
</event>
<event>
13    1  0.2101801E-008  0.1352621E+03  0.7546771E-02  0.1241093E+00
          2   -1    0    0  503    0  0.00000000000E+00  0.00000000000E+00  0.25689028483E+04  0.25689028483E+04  0.00000000000E+00 0. -1.
          2   -1    0    0  502    0 -0.00000000000E+00 -0.00000000000E+00 -0.62848466137E+03  0.62848466137E+03  0.00000000000E+00 0. -1.
         24    2    1    2    0    0  0.44635939383E+02  0.10808364692E+03 -0.10280147364E+03  0.17537985011E+03  0.80718690693E+02 0.  0.
         25    2    1    2    0    0 -0.80970396089E+02  0.53486234995E+02  0.19089426859E+03  0.24795612387E+03  0.12499854083E+03 0.  0.
         24    2    1    2    0    0 -0.53403602718E+01 -0.12343905589E+03 -0.11338383204E+03  0.18522060497E+03  0.78645147150E+02 0.  0.
        -13    1    5    5    0    0 -0.40734341724E+02 -0.58508065291E+02 -0.43753134176E+02  0.83646978726E+02  0.00000000000E+00 0.  1.
         14    1    5    5    0    0  0.35393981452E+02 -0.64930990595E+02 -0.69630697862E+02  0.10157362624E+03  0.00000000000E+00 0. -1.
        -13    1    3    3    0    0  0.22180084381E+02  0.10909803883E+03 -0.10469085085E+03  0.15282183244E+03  0.00000000000E+00 0.  1.
         14    1    3    3    0    0  0.22455855002E+02 -0.10143919117E+01  0.18893772131E+01  0.22558017668E+02  0.00000000000E+00 0. -1.
          5    1    4    4  501    0  0.18097439433E+02  0.23185419936E+01 -0.75388661061E+01  0.20293285913E+02  0.47000000000E+01 0.  1.
         -5    1    4    4    0  501 -0.99067835521E+02  0.51167693001E+02  0.19843313470E+03  0.22766283796E+03  0.47000000000E+01 0.  1.
          1    1    1    2  502    0  0.49700830854E+02  0.96605416120E+02 -0.30002030208E+03  0.31908456664E+03  0.00000000000E+00 0. -1.
          1    1    1    2  503    0 -0.80260138772E+01 -0.13473624214E+03  0.22657295260E+04  0.22697463640E+04  0.00000000000E+00 0. -1.
<mgrwt>
<rscale>  0 0.12122274E+03</rscale>
<asrwt>0</asrwt>
<pdfrwt beam="1">  1        2 0.37777983E+00 0.13526209E+03</pdfrwt>
<pdfrwt beam="2">  1        2 0.92424216E-01 0.10864060E+03</pdfrwt>
<totfact> 0.37175981E+01</totfact>
</mgrwt>
</event>
<event>
13    1  0.2101801E-008  0.1196442E+03  0.7546771E-02  0.1418959E+00
          2   -1    0    0  502    0  0.00000000000E+00  0.00000000000E+00  0.83366516498E+03  0.83366516498E+03  0.00000000000E+00 0. -1.
          2   -1    0    0  503    0 -0.00000000000E+00 -0.00000000000E+00 -0.19044425369E+04  0.19044425369E+04  0.00000000000E+00 0. -1.
         24    2    1    2    0    0 -0.62474530332E+02  0.57415372136E+02 -0.37119199133E+03  0.38906448135E+03  0.79925492327E+02 0.  0.
         25    2    1    2    0    0 -0.36547231129E+02 -0.74056371470E+02  0.45333533973E+03  0.47744921864E+03  0.12499911947E+03 0.  0.
         24    2    1    2    0    0 -0.46977190572E+02  0.62885371425E+01 -0.63724041292E+00  0.93643171029E+02  0.80760357055E+02 0.  0.
        -11    1    3    3    0    0 -0.76865866337E+02  0.24615882353E+02 -0.25252172512E+03  0.26510662898E+03  0.00000000000E+00 0.  1.
         12    1    3    3    0    0  0.14391336005E+02  0.32799489783E+02 -0.11867026621E+03  0.12395785237E+03  0.00000000000E+00 0. -1.
        -13    1    5    5    0    0 -0.13319182395E+02 -0.34359111155E+02 -0.13635214850E+02  0.39292088555E+02  0.00000000000E+00 0.  1.
         14    1    5    5    0    0 -0.33658008177E+02  0.40647648298E+02  0.12997974437E+02  0.54351082474E+02  0.00000000000E+00 0. -1.
          5    1    4    4  501    0  0.41188581407E+02 -0.44981677550E+02  0.13117982575E+03  0.14474144961E+03  0.47000000000E+01 0. -1.
         -5    1    4    4    0  501 -0.77735812537E+02 -0.29074693920E+02  0.32215551399E+03  0.33270776902E+03  0.47000000000E+01 0. -1.
          1    1    1    2  502    0 -0.23788143758E+02  0.92023742652E+01  0.30738447221E+03  0.30844087477E+03  0.00000000000E+00 0. -1.
          1    1    1    2  503    0  0.16978709579E+03  0.11500879264E+01 -0.14596679521E+04  0.14695099561E+04  0.00000000000E+00 0. -1.
<mgrwt>
<rscale>  0 0.55241761E+02</rscale>
<asrwt>0</asrwt>
<pdfrwt beam="1">  1        2 0.12259782E+00 0.25506067E+02</pdfrwt>
<pdfrwt beam="2">  1        2 0.28006508E+00 0.11964416E+03</pdfrwt>
<totfact> 0.60745829E+01</totfact>
</mgrwt>
</event>
<event>
13    1  0.2101801E-008  0.5185885E+02  0.7546771E-02  0.1470917E+00
          2   -1    0    0  502    0  0.00000000000E+00  0.00000000000E+00  0.22797782216E+04  0.22797782216E+04  0.00000000000E+00 0. -1.
          2   -1    0    0  503    0 -0.00000000000E+00 -0.00000000000E+00 -0.20722220347E+04  0.20722220347E+04  0.00000000000E+00 0. -1.
         24    2    1    2    0    0  0.71125588111E+02 -0.35425584288E+03 -0.10671904963E+04  0.11296727999E+04  0.81908655966E+02 0.  0.
         25    2    1    2    0    0 -0.10789531774E+03  0.35437040659E+03  0.77015690367E+03  0.86370427406E+03  0.12499452824E+03 0.  0.
         24    2    1    2    0    0  0.52215451435E+02 -0.44297233939E+02  0.65621886419E+03  0.66473937078E+03  0.81034159688E+02 0.  0.
        -11    1    3    3    0    0  0.41316719228E+02 -0.17258657706E+03 -0.64752281374E+03  0.67140076868E+03  0.00000000000E+00 0.  1.
         12    1    3    3    0    0  0.29808868882E+02 -0.18166926581E+03 -0.41966768259E+03  0.45827203124E+03  0.00000000000E+00 0. -1.
        -13    1    5    5    0    0  0.41227581814E+02  0.13557117053E+01  0.49784454240E+03  0.49955053784E+03  0.00000000000E+00 0.  1.
         14    1    5    5    0    0  0.10987869622E+02 -0.45652945644E+02  0.15837432179E+03  0.16518883294E+03  0.00000000000E+00 0. -1.
          5    1    4    4  501    0 -0.88278203692E+01  0.23718918815E+03  0.47322288832E+03  0.52943236906E+03  0.47000000000E+01 0.  1.
         -5    1    4    4    0  501 -0.99067497372E+02  0.11718121845E+03  0.29693401536E+03  0.33427190499E+03  0.47000000000E+01 0.  1.
          1    1    1    2  502    0 -0.47669211450E+02  0.20459242824E+02  0.76982026199E+03  0.77156605038E+03  0.00000000000E+00 0. -1.
          1    1    1    2  503    0  0.32223489645E+02  0.23723427397E+02 -0.92144934657E+03  0.92231776118E+03  0.00000000000E+00 0. -1.
<mgrwt>
<rscale>  0 0.45553290E+02</rscale>
<asrwt>0</asrwt>
<pdfrwt beam="1">  1        2 0.33526150E+00 0.51858853E+02</pdfrwt>
<pdfrwt beam="2">  1        2 0.30473853E+00 0.40014426E+02</pdfrwt>
<totfact> 0.10630794E+01</totfact>
</mgrwt>
</event>
<event>
13    1  0.2101801E-008  0.1373989E+03  0.7546771E-02  0.1377167E+00
          2   -1    0    0  502    0  0.00000000000E+00  0.00000000000E+00  0.25289795203E+04  0.25289795203E+04  0.00000000000E+00 0. -1.
          2   -1    0    0  503    0 -0.00000000000E+00 -0.00000000000E+00 -0.75778617802E+03  0.75778617802E+03  0.00000000000E+00 0. -1.
         24    2    1    2    0    0 -0.65108328623E+02 -0.58755581721E+02  0.26198862372E+02  0.12129281804E+03  0.79588029750E+02 0.  0.
         25    2    1    2    0    0 -0.20163515528E+03  0.18025388700E+03  0.13630834959E+04  0.13952660436E+04  0.12499006394E+03 0.  0.
         24    2    1    2    0    0  0.38558370309E+02 -0.10071842576E+03  0.43079997278E+03  0.45139548943E+03  0.80859891884E+02 0.  0.
        -11    1    3    3    0    0 -0.66233194261E+02 -0.10458361354E+02  0.15826525337E+01  0.67072484174E+02  0.00000000000E+00 0.  1.
         12    1    3    3    0    0  0.11248656376E+01 -0.48297220368E+02  0.24616209839E+02  0.54220333868E+02  0.00000000000E+00 0. -1.
        -13    1    5    5    0    0  0.83202118673E-02 -0.95912512003E+02  0.30207906639E+03  0.31694001385E+03  0.00000000000E+00 0.  1.
         14    1    5    5    0    0  0.38550050098E+02 -0.48059137536E+01  0.12872090639E+03  0.13445547557E+03  0.00000000000E+00 0. -1.
          5    1    4    4  501    0 -0.12686887851E+03  0.16614875632E+03  0.79285679225E+03  0.81996652650E+03  0.47000000000E+01 0. -1.
         -5    1    4    4    0  501 -0.74766276765E+02  0.14105130678E+02  0.57022670362E+03  0.57529951710E+03  0.47000000000E+01 0. -1.
          1    1    1    2  502    0  0.22341611505E+02 -0.21422887963E+02  0.61907553380E+03  0.61984885600E+03  0.00000000000E+00 0. -1.
          1    1    1    2  503    0  0.20584350209E+03  0.64300844052E+00 -0.66796452255E+03  0.69896249126E+03  0.00000000000E+00 0. -1.
<mgrwt>
<rscale>  0 0.65214328E+02</rscale>
<asrwt>0</asrwt>
<pdfrwt beam="1">  1        2 0.37190875E+00 0.30952992E+02</pdfrwt>
<pdfrwt beam="2">  1        2 0.11143915E+00 0.13739895E+03</pdfrwt>
<totfact> 0.38206399E+01</totfact>
</mgrwt>
</event>
<event>
13    1  0.2101801E-008  0.1692374E+03  0.7546771E-02  0.1196530E+00
          2   -1    0    0  502    0  0.00000000000E+00  0.00000000000E+00  0.15641560444E+04  0.15641560444E+04  0.00000000000E+00 0. -1.
          2   -1    0    0  503    0 -0.00000000000E+00 -0.00000000000E+00 -0.10973534830E+04  0.10973534830E+04  0.00000000000E+00 0. -1.
         24    2    1    2    0    0 -0.89282091700E+02 -0.49356922703E+02 -0.29032062166E+03  0.31838405432E+03  0.81700336392E+02 0.  0.
         25    2    1    2    0    0  0.24615433023E+02  0.20510167120E+03  0.41329732178E+03  0.47865678745E+03  0.12500011562E+03 0.  0.
         24    2    1    2    0    0 -0.10344698916E+03 -0.20639496846E+02 -0.96575672057E+02  0.16387695134E+03  0.80009539115E+02 0.  0.
        -11    1    3    3    0    0 -0.76790889712E+02  0.17164830616E+01 -0.19390082200E+03  0.20856010124E+03  0.00000000000E+00 0.  1.
         12    1    3    3    0    0 -0.12491201988E+02 -0.51073405765E+02 -0.96419799662E+02  0.10982395308E+03  0.00000000000E+00 0. -1.
        -11    1    5    5    0    0 -0.10773966018E+03 -0.62605652604E+01 -0.58074498618E+02  0.12255478956E+03  0.00000000000E+00 0.  1.
         12    1    5    5    0    0  0.42926710200E+01 -0.14378931586E+02 -0.38501173439E+02  0.41322161780E+02  0.00000000000E+00 0. -1.
          5    1    4    4  501    0  0.38961604167E+02  0.12621260760E+02  0.35578463753E+02  0.54453832790E+02  0.47000000000E+01 0.  1.
         -5    1    4    4    0  501 -0.14346171144E+02  0.19248041044E+03  0.37771885803E+03  0.42420295466E+03  0.47000000000E+01 0.  1.
          1    1    1    2  502    0  0.21487575883E+03  0.15014925766E+02  0.10495768242E+04  0.10714516087E+04  0.00000000000E+00 0. -1.
          1    1    1    2  503    0 -0.46762110996E+02 -0.15012017741E+03 -0.60917529086E+03  0.62914012564E+03  0.00000000000E+00 0. -1.
<mgrwt>
<rscale>  0 0.15325475E+03</rscale>
<asrwt>0</asrwt>
<pdfrwt beam="1">  1        2 0.23002295E+00 0.13878146E+03</pdfrwt>
<pdfrwt beam="2">  1        2 0.16137551E+00 0.16923744E+03</pdfrwt>
<totfact> 0.56886026E+01</totfact>
</mgrwt>
</event>
<event>
13    1  0.2101801E-008  0.2071604E+03  0.7546771E-02  0.1254263E+00
          2   -1    0    0  503    0  0.00000000000E+00  0.00000000000E+00  0.16050391410E+04  0.16050391410E+04  0.00000000000E+00 0. -1.
          2   -1    0    0  502    0 -0.00000000000E+00 -0.00000000000E+00 -0.25483885008E+04  0.25483885008E+04  0.00000000000E+00 0. -1.
         24    2    1    2    0    0  0.24400924098E+03  0.15238592141E+03 -0.13979970693E+03  0.32988449600E+03  0.80733164934E+02 0.  0.
         25    2    1    2    0    0 -0.17446175398E+03 -0.58950965840E+02 -0.77431111139E+03  0.80566477940E+03  0.12500367825E+03 0.  0.
         24    2    1    2    0    0 -0.43320478202E+02 -0.23816606624E+03 -0.16372441506E+03  0.30296261491E+03  0.79880679797E+02 0.  0.
        -11    1    3    3    0    0  0.12796203757E+03  0.11999201469E+03 -0.60120264414E+02  0.18543681631E+03  0.00000000000E+00 0.  1.
         12    1    3    3    0    0  0.11604720340E+03  0.32393906723E+02 -0.79679442517E+02  0.14444767970E+03  0.00000000000E+00 0. -1.
        -11    1    5    5    0    0 -0.18334182763E+02 -0.10350017785E+03 -0.25054915680E+02  0.10805636433E+03  0.00000000000E+00 0.  1.
         12    1    5    5    0    0 -0.24986295439E+02 -0.13466588839E+03 -0.13866949938E+03  0.19490625057E+03  0.00000000000E+00 0. -1.
          5    1    4    4  501    0 -0.35196074163E+02 -0.18936090764E+02 -0.43264611726E+03  0.43451362688E+03  0.47000000000E+01 0.  1.
         -5    1    4    4    0  501 -0.13926567981E+03 -0.40014875076E+02 -0.34166499413E+03  0.37115115252E+03  0.47000000000E+01 0.  1.
          1    1    1    2  502    0  0.27623401344E+02 -0.55684789878E+02 -0.12819007503E+04  0.12834069432E+04  0.00000000000E+00 0. -1.
          1    1    1    2  503    0 -0.53850410141E+02  0.20041590055E+03  0.14163866239E+04  0.14315088083E+04  0.00000000000E+00 0. -1.
<mgrwt>
<rscale>  0 0.11347714E+03</rscale>
<asrwt>0</asrwt>
<pdfrwt beam="1">  1        2 0.23603517E+00 0.20716040E+03</pdfrwt>
<pdfrwt beam="2">  1        2 0.37476301E+00 0.62159859E+02</pdfrwt>
<totfact> 0.11018223E+01</totfact>
</mgrwt>
</event>
<event>
13    1  0.2101801E-008  0.1683732E+03  0.7546771E-02  0.1208207E+00
          2   -1    0    0  503    0  0.00000000000E+00  0.00000000000E+00  0.92572638380E+03  0.92572638380E+03  0.00000000000E+00 0. -1.
          2   -1    0    0  502    0 -0.00000000000E+00 -0.00000000000E+00 -0.11622924194E+04  0.11622924194E+04  0.00000000000E+00 0. -1.
         24    2    1    2    0    0 -0.16359818950E+03  0.11255844432E+03 -0.29080699582E+03  0.36122340187E+03  0.80497616394E+02 0.  0.
         25    2    1    2    0    0  0.29648995976E+03 -0.83863452385E+02  0.15140396178E+03  0.36536023824E+03  0.12500227664E+03 0.  0.
         24    2    1    2    0    0 -0.70745694617E+01  0.58992781277E+02  0.10239653653E+03  0.14267802541E+03  0.79635233827E+02 0.  0.
        -13    1    3    3    0    0 -0.13190860342E+03  0.50847533054E+02 -0.22421865925E+03  0.26506481930E+03  0.00000000000E+00 0.  1.
         14    1    3    3    0    0 -0.31689586084E+02  0.61710911263E+02 -0.66588336568E+02  0.96158582570E+02  0.00000000000E+00 0. -1.
        -13    1    5    5    0    0 -0.89754784281E+01 -0.14011645402E+02  0.50273773677E+02  0.52955998146E+02  0.00000000000E+00 0.  1.
         14    1    5    5    0    0  0.19009089664E+01  0.73004426678E+02  0.52122762852E+02  0.89722027267E+02  0.00000000000E+00 0. -1.
          5    1    4    4  501    0  0.21185698917E+03 -0.73199007903E+02  0.16564409870E+03  0.27874995256E+03  0.47000000000E+01 0. -1.
         -5    1    4    4    0  501  0.84632970584E+02 -0.10664444482E+02 -0.14240136923E+02  0.86610285680E+02  0.47000000000E+01 0. -1.
          1    1    1    2  502    0 -0.34166127059E+02 -0.16900660783E+03 -0.69104375967E+03  0.71223032476E+03  0.00000000000E+00 0. -1.
          1    1    1    2  503    0 -0.91651073733E+02  0.81318834626E+02  0.49148422155E+03  0.50652681293E+03  0.00000000000E+00 0. -1.
<mgrwt>
<rscale>  0 0.14387540E+03</rscale>
<asrwt>0</asrwt>
<pdfrwt beam="1">  1        2 0.13613623E+00 0.12294198E+03</pdfrwt>
<pdfrwt beam="2">  1        2 0.17092535E+00 0.16837318E+03</pdfrwt>
<totfact> 0.11613684E+02</totfact>
</mgrwt>
</event>
<event>
13    1  0.2101801E-008  0.2045903E+03  0.7546771E-02  0.1321143E+00
          2   -1    0    0  502    0  0.00000000000E+00  0.00000000000E+00  0.31836855896E+04  0.31836855896E+04  0.00000000000E+00 0. -1.
          4   -1    0    0  503    0 -0.00000000000E+00 -0.00000000000E+00 -0.27265812132E+03  0.27265812132E+03  0.00000000000E+00 0. -1.
         24    2    1    2    0    0 -0.15807003963E+02 -0.29509941127E+03  0.13156107089E+03  0.32840983555E+03  0.56667281601E+02 0.  0.
         25    2    1    2    0    0 -0.22236009854E+02  0.14841701410E+03  0.35639792033E+03  0.40640773766E+03  0.12500288560E+03 0.  0.
         24    2    1    2    0    0 -0.15581761830E+03  0.22233542809E+03  0.51365864349E+03  0.58658865441E+03  0.80801452280E+02 0.  0.
        -13    1    5    5    0    0 -0.72462177435E+02  0.10319298830E+03  0.15658009954E+03  0.20103951743E+03  0.00000000000E+00 0.  1.
         14    1    5    5    0    0 -0.83355440865E+02  0.11914243978E+03  0.35707854395E+03  0.38554913698E+03  0.00000000000E+00 0. -1.
        -13    1    3    3    0    0 -0.26620573297E+02 -0.18722689599E+03  0.59567776222E+02  0.19826972908E+03  0.00000000000E+00 0.  1.
         14    1    3    3    0    0  0.10813569334E+02 -0.10787251528E+03  0.71993294666E+02  0.13014010647E+03  0.00000000000E+00 0. -1.
          5    1    4    4  501    0  0.44344250183E+02  0.10593340118E+03  0.23330859643E+03  0.26008323510E+03  0.47000000000E+01 0. -1.
         -5    1    4    4    0  501 -0.66580260037E+02  0.42483612914E+02  0.12308932390E+03  0.14632450256E+03  0.47000000000E+01 0. -1.
          1    1    1    2  502    0  0.17608618148E+03 -0.10411178811E+03  0.20143774368E+04  0.20247375301E+04  0.00000000000E+00 0. -1.
          3    1    1    2  503    0  0.17774450639E+02  0.28458757204E+02 -0.10496760326E+03  0.11019995323E+03  0.00000000000E+00 0. -1.
<mgrwt>
<rscale>  0 0.82853512E+02</rscale>
<asrwt>0</asrwt>
<pdfrwt beam="1">  1        2 0.46818903E+00 0.20459031E+03</pdfrwt>
<pdfrwt beam="2">  1        4 0.40096785E-01 0.33553419E+02</pdfrwt>
<totfact> 0.54913439E+00</totfact>
</mgrwt>
</event>
<event>
13    1  0.2101801E-008  0.3497772E+02  0.7546771E-02  0.1609314E+00
          2   -1    0    0  503    0  0.00000000000E+00  0.00000000000E+00  0.16955419753E+04  0.16955419753E+04  0.00000000000E+00 0. -1.
         -3   -1    0    0    0  501 -0.00000000000E+00 -0.00000000000E+00 -0.13951760664E+04  0.13951760664E+04  0.00000000000E+00 0.  1.
         24    2    1    2    0    0 -0.10693382516E+02 -0.24975022488E+03 -0.39594153910E+03  0.47980737457E+03  0.10467039246E+03 0.  0.
         25    2    1    2    0    0  0.16792840242E+03  0.25440927951E+03 -0.64940504750E+02  0.33580761775E+03  0.12500182855E+03 0.  0.
         24    2    1    2    0    0 -0.18301535168E+03 -0.16086731943E+02  0.45425630929E+03  0.49629232533E+03  0.78764685966E+02 0.  0.
        -11    1    3    3    0    0  0.10010315530E+02 -0.19487103625E+03 -0.21861280577E+03  0.29302983813E+03  0.00000000000E+00 0.  1.
         12    1    3    3    0    0 -0.20703698047E+02 -0.54879188621E+02 -0.17732873333E+03  0.18677753645E+03  0.00000000000E+00 0. -1.
        -13    1    5    5    0    0 -0.11030200030E+03 -0.44383283928E+02  0.23115170633E+03  0.25993752807E+03  0.00000000000E+00 0.  1.
         14    1    5    5    0    0 -0.72713351386E+02  0.28296551985E+02  0.22310460296E+03  0.23635479726E+03  0.00000000000E+00 0. -1.
          5    1    4    4  502    0  0.42393264265E+02  0.16240206951E+03 -0.21837399586E+01  0.16792402971E+03  0.47000000000E+01 0. -1.
         -5    1    4    4    0  502  0.12553513816E+03  0.92007210007E+02 -0.62756764791E+02  0.16788358804E+03  0.47000000000E+01 0. -1.
          1    1    1    2  503    0  0.13657616086E+02  0.32208054423E+02  0.10424110422E+04  0.10429979243E+04  0.00000000000E+00 0. -1.
         -4    1    1    2    0  501  0.12122715693E+02 -0.20780377117E+02 -0.73541939875E+03  0.73581279981E+03  0.00000000000E+00 0.  1.
<mgrwt>
<rscale>  0 0.29008479E+02</rscale>
<asrwt>0</asrwt>
<pdfrwt beam="1">  1        2 0.24934441E+00 0.34977723E+02</pdfrwt>
<pdfrwt beam="2">  1       -3 0.20517295E+00 0.24057937E+02</pdfrwt>
<totfact> 0.13853002E+00</totfact>
</mgrwt>
</event>
<event>
13    1  0.2101801E-008  0.7541990E+02  0.7546771E-02  0.1409732E+00
          2   -1    0    0  502    0  0.00000000000E+00  0.00000000000E+00  0.10176359462E+04  0.10176359462E+04  0.00000000000E+00 0. -1.
          2   -1    0    0  503    0 -0.00000000000E+00 -0.00000000000E+00 -0.13482770823E+04  0.13482770823E+04  0.00000000000E+00 0. -1.
         24    2    1    2    0    0  0.31202717819E+02 -0.23482719630E+03  0.81388117318E+01  0.24957788403E+03  0.78137431589E+02 0.  0.
         25    2    1    2    0    0 -0.98155479530E+02  0.14164452057E+03  0.25500367955E+03  0.33218868397E+03  0.12499910721E+03 0.  0.
         24    2    1    2    0    0  0.51852350379E+02  0.64238763475E+02  0.67210717056E+02  0.13291131081E+03  0.79579212614E+02 0.  0.
        -11    1    5    5    0    0  0.54393067404E+02  0.22568323832E+02  0.69507816518E+02  0.91100337976E+02  0.00000000000E+00 0.  1.
         12    1    5    5    0    0 -0.25407170245E+01  0.41670439643E+02 -0.22970994627E+01  0.41810972830E+02  0.00000000000E+00 0. -1.
        -11    1    3    3    0    0  0.56486068586E+02 -0.14767100428E+03  0.13425450182E+02  0.15867464877E+03  0.00000000000E+00 0.  1.
         12    1    3    3    0    0 -0.25283350767E+02 -0.87156192023E+02 -0.52866384505E+01  0.90903235257E+02  0.00000000000E+00 0. -1.
          5    1    4    4  501    0 -0.11079800596E+03  0.54325857507E+02  0.13221234961E+03  0.18091349399E+03  0.47000000000E+01 0.  1.
         -5    1    4    4    0  501  0.12642526431E+02  0.87318663064E+02  0.12279132994E+03  0.15127518998E+03  0.47000000000E+01 0.  1.
          1    1    1    2  502    0  0.32695430476E+02  0.68686472478E+02  0.49178652863E+03  0.49763522023E+03  0.00000000000E+00 0. -1.
          1    1    1    2  503    0 -0.17595019145E+02 -0.39742560220E+02 -0.11527808731E+04  0.11535999295E+04  0.00000000000E+00 0. -1.
<mgrwt>
<rscale>  0 0.57253782E+02</rscale>
<asrwt>0</asrwt>
<pdfrwt beam="1">  1        2 0.14965235E+00 0.75419903E+02</pdfrwt>
<pdfrwt beam="2">  1        2 0.19827604E+00 0.43463269E+02</pdfrwt>
<totfact> 0.91760532E+01</totfact>
</mgrwt>
</event>
<event>
13    1  0.2101801E-008  0.1827538E+03  0.7546771E-02  0.1202970E+00
          2   -1    0    0  502    0  0.00000000000E+00  0.00000000000E+00  0.11215479599E+04  0.11215479599E+04  0.00000000000E+00 0. -1.
          2   -1    0    0  503    0 -0.00000000000E+00 -0.00000000000E+00 -0.77734148089E+03  0.77734148089E+03  0.00000000000E+00 0. -1.
         24    2    1    2    0    0  0.47973112701E+03  0.11335831990E+03 -0.39906514378E+02  0.50213087269E+03  0.86895457308E+02 0.  0.
         25    2    1    2    0    0  0.77292517907E+02 -0.10447179139E+03  0.25835385005E+03  0.31505422329E+03  0.12499585296E+03 0.  0.
         24    2    1    2    0    0 -0.28074373048E+03 -0.93481656827E+02 -0.72600268335E+02  0.31504148630E+03  0.80152833747E+02 0.  0.
        -11    1    3    3    0    0  0.22641111831E+03  0.67785673700E+02  0.22127359046E+02  0.23737420262E+03  0.00000000000E+00 0.  1.
         12    1    3    3    0    0  0.25332000870E+03  0.45572646202E+02 -0.62033873425E+02  0.26475667006E+03  0.00000000000E+00 0. -1.
        -11    1    5    5    0    0 -0.14406719990E+03 -0.26637213138E+02 -0.11222219355E+00  0.14650908437E+03  0.00000000000E+00 0.  1.
         12    1    5    5    0    0 -0.13667653058E+03 -0.66844443689E+02 -0.72488046142E+02  0.16853240192E+03  0.00000000000E+00 0. -1.
          5    1    4    4  501    0  0.57390886068E+02 -0.11067869675E+03  0.11360235691E+03  0.16873373466E+03  0.47000000000E+01 0. -1.
         -5    1    4    4    0  501  0.19901631839E+02  0.62069053658E+01  0.14475149314E+03  0.14632048863E+03  0.47000000000E+01 0. -1.
          1    1    1    2  502    0 -0.95156220335E+02  0.72835091020E+02  0.44476430981E+03  0.46062451957E+03  0.00000000000E+00 0. -1.
          1    1    1    2  503    0 -0.18112369410E+03  0.11760037293E+02 -0.24640489816E+03  0.30603833891E+03  0.00000000000E+00 0. -1.
<mgrwt>
<rscale>  0 0.14798554E+03</rscale>
<asrwt>0</asrwt>
<pdfrwt beam="1">  1        2 0.16493352E+00 0.11983179E+03</pdfrwt>
<pdfrwt beam="2">  1        2 0.11431492E+00 0.18275384E+03</pdfrwt>
<totfact> 0.15288669E+02</totfact>
</mgrwt>
</event>
<event>
13    1  0.2101801E-008  0.7760776E+02  0.7546771E-02  0.1436925E+00
          2   -1    0    0  503    0  0.00000000000E+00  0.00000000000E+00  0.17588986989E+04  0.17588986989E+04  0.00000000000E+00 0. -1.
          2   -1    0    0  502    0 -0.00000000000E+00 -0.00000000000E+00 -0.76252704176E+03  0.76252704176E+03  0.00000000000E+00 0. -1.
         24    2    1    2    0    0  0.24498550105E+02 -0.13786615278E+03 -0.64935141120E+02  0.17340949897E+03  0.79038134727E+02 0.  0.
         25    2    1    2    0    0  0.37200157829E+02  0.15083472993E+03  0.83125417814E+03  0.85483552175E+03  0.12500117227E+03 0.  0.
         24    2    1    2    0    0  0.33491309601E+02  0.66584112949E+01  0.14550020685E+03  0.17267413135E+03  0.86487242906E+02 0.  0.
        -11    1    3    3    0    0  0.46917027855E+02 -0.11164293276E+03 -0.30974557096E+02  0.12499910050E+03  0.00000000000E+00 0.  1.
         12    1    3    3    0    0 -0.22418477750E+02 -0.26223220016E+02 -0.33960584023E+02  0.48410398468E+02  0.00000000000E+00 0. -1.
        -11    1    5    5    0    0  0.32924160951E+02  0.80950503327E+01  0.75754421004E+01  0.34740718721E+02  0.00000000000E+00 0.  1.
         12    1    5    5    0    0  0.56714864955E+00 -0.14366390377E+01  0.13792476475E+03  0.13793341263E+03  0.00000000000E+00 0. -1.
          5    1    4    4  501    0 -0.25415309634E+02 -0.24040515505E+01  0.22068485790E+03  0.22220624189E+03  0.47000000000E+01 0. -1.
         -5    1    4    4    0  501  0.62615467463E+02  0.15323878148E+03  0.61056932024E+03  0.63262927986E+03  0.47000000000E+01 0. -1.
          1    1    1    2  502    0 -0.66978144450E+02 -0.39136993440E+02 -0.61512082532E+03  0.61999306918E+03  0.00000000000E+00 0. -1.
          1    1    1    2  503    0 -0.28211873084E+02  0.19510004990E+02  0.69967323862E+03  0.70051351944E+03  0.00000000000E+00 0. -1.
<mgrwt>
<rscale>  0 0.51594709E+02</rscale>
<asrwt>0</asrwt>
<pdfrwt beam="1">  1        2 0.25866157E+00 0.34300876E+02</pdfrwt>
<pdfrwt beam="2">  1        2 0.11213633E+00 0.77607756E+02</pdfrwt>
<totfact> 0.85947033E+01</totfact>
</mgrwt>
</event>
<event>
13    1  0.2101801E-008  0.2205717E+03  0.7546771E-02  0.1220093E+00
          2   -1    0    0  502    0  0.00000000000E+00  0.00000000000E+00  0.15917831099E+04  0.15917831099E+04  0.00000000000E+00 0. -1.
          2   -1    0    0  503    0 -0.00000000000E+00 -0.00000000000E+00 -0.24140872963E+04  0.24140872963E+04  0.00000000000E+00 0. -1.
         24    2    1    2    0    0 -0.17215185336E+01 -0.22512525735E+03 -0.17012346952E+03  0.29355444609E+03  0.80918927430E+02 0.  0.
         25    2    1    2    0    0 -0.18892115533E+03  0.36236821217E+03  0.54042403468E+03  0.68897372561E+03  0.12499893278E+03 0.  0.
         24    2    1    2    0    0 -0.81521001050E+02 -0.37726928787E+02 -0.15225697852E+02  0.12193181088E+03  0.81034251168E+02 0.  0.
        -11    1    3    3    0    0  0.22859498509E+02 -0.17212840830E+03 -0.15606345575E+03  0.23346637410E+03  0.00000000000E+00 0.  1.
         12    1    3    3    0    0 -0.24581017043E+02 -0.52996849054E+02 -0.14060013767E+02  0.60088071991E+02  0.00000000000E+00 0. -1.
        -13    1    5    5    0    0 -0.69463624649E+02  0.74347259561E+01  0.69302658942E+01  0.70203268334E+02  0.00000000000E+00 0.  1.
         14    1    5    5    0    0 -0.12057376401E+02 -0.45161654743E+02 -0.22155963746E+02  0.51728542549E+02  0.00000000000E+00 0. -1.
          5    1    4    4  501    0 -0.54213898550E+02  0.12529734198E+03  0.93921837676E+02  0.16577687503E+03  0.47000000000E+01 0. -1.
         -5    1    4    4    0  501 -0.13470725678E+03  0.23707087019E+03  0.44650219700E+03  0.52319685057E+03  0.47000000000E+01 0. -1.
          1    1    1    2  502    0  0.54712598501E+02 -0.62063043039E+02  0.85404231668E+03  0.85804054008E+03  0.00000000000E+00 0. -1.
          1    1    1    2  503    0  0.21745107641E+03 -0.37452982992E+02 -0.20314213704E+04  0.20433698835E+04  0.00000000000E+00 0. -1.
<mgrwt>
<rscale>  0 0.13508990E+03</rscale>
<asrwt>0</asrwt>
<pdfrwt beam="1">  1        2 0.23408575E+00 0.82736266E+02</pdfrwt>
<pdfrwt beam="2">  1        2 0.35501283E+00 0.22057172E+03</pdfrwt>
<totfact> 0.11978710E+01</totfact>
</mgrwt>
</event>
<event>
13    1  0.2101801E-008  0.4718105E+02  0.7546771E-02  0.1463013E+00
          2   -1    0    0  502    0  0.00000000000E+00  0.00000000000E+00  0.12542718280E+04  0.12542718280E+04  0.00000000000E+00 0. -1.
          2   -1    0    0  503    0 -0.00000000000E+00 -0.00000000000E+00 -0.25769877369E+04  0.25769877369E+04  0.00000000000E+00 0. -1.
         24    2    1    2    0    0 -0.90843018078E+02  0.67444430663E+02 -0.10281767413E+04  0.10375894999E+04  0.81506770898E+02 0.  0.
         25    2    1    2    0    0  0.20880361770E+03 -0.26562529263E+02 -0.96355898109E+03  0.99417046225E+03  0.12499791696E+03 0.  0.
         24    2    1    2    0    0 -0.35738713326E+02 -0.91611095857E+01  0.38652139535E+03  0.39624627340E+03  0.79064142083E+02 0.  0.
        -11    1    5    5    0    0 -0.59232650528E+02 -0.68809902603E+01  0.21529367996E+03  0.22339924697E+03  0.00000000000E+00 0.  1.
         12    1    5    5    0    0  0.23493937202E+02 -0.22801193254E+01  0.17122771539E+03  0.17284702643E+03  0.00000000000E+00 0. -1.
        -13    1    3    3    0    0 -0.14833984876E+01  0.27751343634E+02 -0.47685930033E+03  0.47766843087E+03  0.00000000000E+00 0.  1.
         14    1    3    3    0    0 -0.89359619590E+02  0.39693087029E+02 -0.55131744102E+03  0.55992106903E+03  0.00000000000E+00 0. -1.
          5    1    4    4  501    0  0.20154916091E+01 -0.15757822703E+02 -0.26588129625E+03  0.26639693106E+03  0.47000000000E+01 0. -1.
         -5    1    4    4    0  501  0.20678812609E+03 -0.10804706560E+02 -0.69767768484E+03  0.72777353119E+03  0.47000000000E+01 0. -1.
          1    1    1    2  502    0 -0.47156552701E+02 -0.10979885230E+01  0.84124713876E+03  0.84256851028E+03  0.00000000000E+00 0. -1.
          1    1    1    2  503    0 -0.35065333599E+02 -0.30622803291E+02 -0.55874872054E+03  0.56068481913E+03  0.00000000000E+00 0. -1.
<mgrwt>
<rscale>  0 0.46866794E+02</rscale>
<asrwt>0</asrwt>
<pdfrwt beam="1">  1        2 0.18445174E+00 0.47181049E+02</pdfrwt>
<pdfrwt beam="2">  1        2 0.37896878E+00 0.46554631E+02</pdfrwt>
<totfact> 0.18582657E+01</totfact>
</mgrwt>
</event>
<event>
13    1  0.2101801E-008  0.4789277E+02  0.7546771E-02  0.1489806E+00
         -1   -1    0    0    0  501 -0.00000000000E+00  0.00000000000E+00  0.19266171617E+03  0.19266171617E+03  0.00000000000E+00 0.  1.
          2   -1    0    0  503    0  0.00000000000E+00 -0.00000000000E+00 -0.38538557736E+04  0.38538557736E+04  0.00000000000E+00 0. -1.
         24    2    1    2    0    0 -0.43126358465E+02 -0.14448715684E+03 -0.12756524375E+03  0.21328045099E+03  0.80493714517E+02 0.  0.
         25    2    1    2    0    0  0.61371320655E+02  0.20182826070E+03 -0.99350630372E+03  0.10233184555E+04  0.12499920028E+03 0.  0.
         24    2    1    2    0    0 -0.50932415316E+02 -0.52890422104E+02 -0.12029813429E+03  0.16324067868E+03  0.82367289521E+02 0.  0.
        -13    1    3    3    0    0 -0.48593651309E+02 -0.89380063332E+02 -0.12010609686E+03  0.15740271018E+03  0.00000000000E+00 0.  1.
         14    1    3    3    0    0  0.54672928442E+01 -0.55107093509E+02 -0.74591468874E+01  0.55877740813E+02  0.00000000000E+00 0. -1.
        -13    1    5    5    0    0 -0.47476321875E+02  0.64327393247E+01 -0.72876171538E+02  0.87214205563E+02  0.00000000000E+00 0.  1.
         14    1    5    5    0    0 -0.34560934415E+01 -0.59323161429E+02 -0.47421962749E+02  0.76026473118E+02  0.00000000000E+00 0. -1.
          5    1    4    4  502    0  0.51072575257E+02  0.17379120433E+03 -0.96465446186E+03  0.98152540030E+03  0.47000000000E+01 0. -1.
         -5    1    4    4    0  502  0.10298745398E+02  0.28037056364E+02 -0.28851841860E+02  0.41793055225E+02  0.47000000000E+01 0. -1.
          1    1    1    2  503    0  0.84326587258E+01  0.36968853518E+02 -0.25280247019E+04  0.25283090593E+04  0.00000000000E+00 0. -1.
         -2    1    1    2    0  501  0.24254794401E+02 -0.41419535269E+02  0.10820032619E+03  0.11836884531E+03  0.00000000000E+00 0.  1.
<mgrwt>
<rscale>  0 0.42614761E+02</rscale>
<asrwt>0</asrwt>
<pdfrwt beam="2">  1        2 0.56674345E+00 0.37918411E+02</pdfrwt>
<pdfrwt beam="1">  1       -1 0.28332608E-01 0.47892774E+02</pdfrwt>
<totfact> 0.14119743E+01</totfact>
</mgrwt>
</event>
<event>
13    1  0.2101801E-008  0.7185791E+02  0.7546771E-02  0.1387585E+00
          2   -1    0    0  502    0  0.00000000000E+00  0.00000000000E+00  0.30688253286E+04  0.30688253286E+04  0.00000000000E+00 0. -1.
          2   -1    0    0  503    0 -0.00000000000E+00 -0.00000000000E+00 -0.48883136208E+03  0.48883136208E+03  0.00000000000E+00 0. -1.
         24    2    1    2    0    0 -0.68011696128E+02  0.29261090596E+02  0.57976417693E+02  0.12424603760E+03  0.81203513584E+02 0.  0.
         25    2    1    2    0    0  0.80137478028E+02 -0.43937835592E+02  0.14338294225E+04  0.14421664187E+04  0.12499847079E+03 0.  0.
         24    2    1    2    0    0  0.29530515756E+01 -0.77623736858E+02 -0.43205145516E+02  0.11961216611E+03  0.80038869585E+02 0.  0.
        -11    1    5    5    0    0  0.25861108299E+02 -0.83693269805E+02 -0.37167785474E+02  0.95156737072E+02  0.00000000000E+00 0.  1.
         12    1    5    5    0    0 -0.22908056724E+02  0.60695329470E+01 -0.60373600417E+01  0.24455429036E+02  0.00000000000E+00 0. -1.
        -13    1    3    3    0    0  0.71375842058E+01 -0.54110971483E+00  0.41025233372E+02  0.41645019886E+02  0.00000000000E+00 0.  1.
         14    1    3    3    0    0 -0.75149280334E+02  0.29802200311E+02  0.16951184321E+02  0.82601017718E+02  0.00000000000E+00 0. -1.
          5    1    4    4  501    0 -0.29362093423E+02 -0.31962995552E+02  0.33894454278E+03  0.34174443477E+03  0.47000000000E+01 0.  1.
         -5    1    4    4    0  501  0.10949957145E+03 -0.11974840041E+02  0.10948848797E+04  0.11004219839E+04  0.47000000000E+01 0.  1.
          1    1    1    2  502    0  0.31645620363E+02  0.64478096241E+02  0.14986504212E+04  0.15003706059E+04  0.00000000000E+00 0. -1.
          1    1    1    2  503    0 -0.46724453839E+02  0.27822385614E+02 -0.36725714930E+03  0.37126146237E+03  0.00000000000E+00 0. -1.
<mgrwt>
<rscale>  0 0.62511462E+02</rscale>
<asrwt>0</asrwt>
<pdfrwt beam="1">  1        2 0.45129783E+00 0.71857910E+02</pdfrwt>
<pdfrwt beam="2">  1        2 0.71886966E-01 0.54380693E+02</pdfrwt>
<totfact> 0.29808296E+01</totfact>
</mgrwt>
</event>
<event>
13    1  0.2101801E-008  0.9573485E+02  0.7546771E-02  0.1350827E+00
          2   -1    0    0  503    0  0.00000000000E+00  0.00000000000E+00  0.37904085855E+04  0.37904085855E+04  0.00000000000E+00 0. -1.
          2   -1    0    0  502    0 -0.00000000000E+00 -0.00000000000E+00 -0.15529699492E+04  0.15529699492E+04  0.00000000000E+00 0. -1.
         24    2    1    2    0    0  0.23515557162E+02  0.17720865412E+02 -0.43314833131E+03  0.44170026037E+03  0.81330391564E+02 0.  0.
         25    2    1    2    0    0  0.10216501826E+03 -0.70968837388E+02 -0.21047026046E+03  0.27458809481E+03  0.12500649757E+03 0.  0.
         24    2    1    2    0    0 -0.49789256810E+02  0.19236325271E+02  0.11056189890E+03  0.15001698326E+03  0.86209949985E+02 0.  0.
        -11    1    3    3    0    0 -0.22153203229E+01 -0.26894155435E+02 -0.71867066780E+02  0.76766389314E+02  0.00000000000E+00 0.  1.
         12    1    3    3    0    0  0.25730877485E+02  0.44615020848E+02 -0.36128126453E+03  0.36493387106E+03  0.00000000000E+00 0. -1.
        -11    1    5    5    0    0 -0.44983785315E+02  0.51584074358E+02  0.79646789121E+02  0.10501461177E+03  0.00000000000E+00 0.  1.
         12    1    5    5    0    0 -0.48054714948E+01 -0.32347749087E+02  0.30915109774E+02  0.45002371489E+02  0.00000000000E+00 0. -1.
          5    1    4    4  501    0  0.62400241360E+02 -0.56918633215E+02 -0.30877694148E+02  0.90050224457E+02  0.47000000000E+01 0. -1.
         -5    1    4    4    0  501  0.39764776904E+02 -0.14050204173E+02 -0.17959256631E+03  0.18453787035E+03  0.47000000000E+01 0. -1.
          1    1    1    2  502    0  0.18103379366E+02  0.52313608795E+02 -0.85175765314E+03  0.85355465302E+03  0.00000000000E+00 0. -1.
          1    1    1    2  503    0 -0.93994697983E+02 -0.18301962091E+02  0.36222529824E+04  0.36235185432E+04  0.00000000000E+00 0. -1.
<mgrwt>
<rscale>  0 0.72798601E+02</rscale>
<asrwt>0</asrwt>
<pdfrwt beam="1">  1        2 0.55741303E+00 0.95734854E+02</pdfrwt>
<pdfrwt beam="2">  1        2 0.22837793E+00 0.55357439E+02</pdfrwt>
<totfact> 0.25149598E+00</totfact>
</mgrwt>
</event>
<event>
13    1  0.2101801E-008  0.6737155E+02  0.7546771E-02  0.1503636E+00
         -1   -1    0    0    0  501 -0.00000000000E+00  0.00000000000E+00  0.12808651625E+04  0.12808651625E+04  0.00000000000E+00 0.  1.
          2   -1    0    0  503    0  0.00000000000E+00 -0.00000000000E+00 -0.54850244431E+03  0.54850244431E+03  0.00000000000E+00 0. -1.
         24    2    1    2    0    0 -0.14371785792E+03  0.61769341911E+02  0.78374316030E+03  0.80317633246E+03  0.79803542685E+02 0.  0.
         25    2    1    2    0    0  0.14240071157E+03 -0.11362607327E+03 -0.11775921327E+03  0.25036247167E+03  0.12500115091E+03 0.  0.
         24    2    1    2    0    0  0.18130774428E+02  0.10218208028E+02  0.34670865514E+03  0.35665133505E+03  0.80994731262E+02 0.  0.
        -13    1    3    3    0    0 -0.71552998155E+02  0.55629424226E+02  0.57788728152E+03  0.58495142920E+03  0.00000000000E+00 0.  1.
         14    1    3    3    0    0 -0.72164859762E+02  0.61399176841E+01  0.20585587878E+03  0.21822490325E+03  0.00000000000E+00 0. -1.
        -13    1    5    5    0    0  0.44154863059E+02  0.26560817641E+02  0.18465008338E+03  0.19170493540E+03  0.00000000000E+00 0.  1.
         14    1    5    5    0    0 -0.26024088631E+02 -0.16342609613E+02  0.16205857176E+03  0.16494639965E+03  0.00000000000E+00 0. -1.
          5    1    4    4  502    0  0.47982589390E+02 -0.85429066469E+02 -0.17911478353E+01  0.98110919336E+02  0.47000000000E+01 0. -1.
         -5    1    4    4    0  502  0.94418122175E+02 -0.28197006804E+02 -0.11596806544E+03  0.15225155234E+03  0.47000000000E+01 0. -1.
          1    1    1    2  503    0 -0.35763972036E+02  0.57168984422E+02 -0.34421338293E+03  0.35075662141E+03  0.00000000000E+00 0. -1.
         -2    1    1    2    0  501  0.18950343959E+02 -0.15530461087E+02  0.63883498972E+02  0.68420846228E+02  0.00000000000E+00 0.  1.
<mgrwt>
<rscale>  0 0.40628641E+02</rscale>
<asrwt>0</asrwt>
<pdfrwt beam="2">  1        2 0.80662125E-01 0.67371548E+02</pdfrwt>
<pdfrwt beam="1">  1       -1 0.18836252E+00 0.24501240E+02</pdfrwt>
<totfact> 0.17029646E+01</totfact>
</mgrwt>
</event>
<event>
13    1  0.2101801E-008  0.1065587E+03  0.7546771E-02  0.1342233E+00
         -1   -1    0    0    0  501 -0.00000000000E+00  0.00000000000E+00  0.82509668917E+03  0.82509668917E+03  0.00000000000E+00 0.  1.
          2   -1    0    0  503    0  0.00000000000E+00 -0.00000000000E+00 -0.21569615809E+04  0.21569615809E+04  0.00000000000E+00 0. -1.
         24    2    1    2    0    0  0.46704922009E+02 -0.13250833806E+02  0.50054068775E+03  0.50895615070E+03  0.78348253971E+02 0.  0.
         25    2    1    2    0    0 -0.95196810586E+02 -0.20049310325E+01 -0.95989192741E+03  0.97265961666E+03  0.12493104126E+03 0.  0.
         24    2    1    2    0    0 -0.65656378935E+02  0.95311495774E+02  0.35245052060E+02  0.14465506073E+03  0.79295848426E+02 0.  0.
        -11    1    5    5    0    0 -0.40191541476E+02  0.75943498854E+02 -0.12862390691E+02  0.86880470295E+02  0.00000000000E+00 0.  1.
         12    1    5    5    0    0 -0.25464837459E+02  0.19367996920E+02  0.48107442751E+02  0.57774590432E+02  0.00000000000E+00 0. -1.
        -13    1    3    3    0    0  0.68629449754E+02 -0.85052757166E+01  0.40097974786E+03  0.40689937243E+03  0.00000000000E+00 0.  1.
         14    1    3    3    0    0 -0.21924527744E+02 -0.47455580893E+01  0.99560939889E+02  0.10205677827E+03  0.00000000000E+00 0. -1.
          5    1    4    4  502    0 -0.72922431920E+02 -0.43562619977E+02 -0.32327291137E+03  0.33427959579E+03  0.47000000000E+01 0. -1.
         -5    1    4    4    0  502 -0.22274378666E+02  0.41557688945E+02 -0.63661901605E+03  0.63838002087E+03  0.47000000000E+01 0. -1.
          1    1    1    2  503    0  0.52148321740E+02 -0.12121234853E+02 -0.11216672460E+04  0.11229442473E+04  0.00000000000E+00 0. -1.
         -2    1    1    2    0  501  0.61999945771E+02 -0.67934496082E+02  0.21390854187E+03  0.23284319470E+03  0.00000000000E+00 0.  1.
<mgrwt>
<rscale>  0 0.75531426E+02</rscale>
<asrwt>0</asrwt>
<pdfrwt beam="2">  1        2 0.31720023E+00 0.53538508E+02</pdfrwt>
<pdfrwt beam="1">  1       -1 0.12133775E+00 0.10655875E+03</pdfrwt>
<totfact> 0.64644461E+00</totfact>
</mgrwt>
</event>
<event>
13    1  0.2101801E-008  0.1543508E+03  0.7546771E-02  0.1248652E+00
          2   -1    0    0  502    0  0.00000000000E+00  0.00000000000E+00  0.36839292326E+04  0.36839292326E+04  0.00000000000E+00 0. -1.
          2   -1    0    0  503    0 -0.00000000000E+00 -0.00000000000E+00 -0.19006967383E+04  0.19006967383E+04  0.00000000000E+00 0. -1.
         24    2    1    2    0    0 -0.32237956327E+03 -0.63396642747E+02 -0.12396551801E+03  0.36029620930E+03  0.80611361818E+02 0.  0.
         25    2    1    2    0    0  0.54913238341E+03 -0.45929045546E+02  0.10941259511E+04  0.12314196424E+04  0.12500754843E+03 0.  0.
         24    2    1    2    0    0 -0.14225986626E+01  0.43542780357E+02  0.14056563229E+02  0.92122646934E+02  0.79943715200E+02 0.  0.
        -11    1    5    5    0    0 -0.26936326920E+02 -0.10411193791E+02  0.14769516530E+02  0.32436049122E+02  0.00000000000E+00 0.  1.
         12    1    5    5    0    0  0.25513728257E+02  0.53953974148E+02 -0.71295330084E+00  0.59686597812E+02  0.00000000000E+00 0. -1.
        -13    1    3    3    0    0 -0.28309432211E+03 -0.37336001329E+02 -0.12811764587E+03  0.31297045130E+03  0.00000000000E+00 0.  1.
         14    1    3    3    0    0 -0.39285241162E+02 -0.26060641418E+02  0.41521278595E+01  0.47325757998E+02  0.00000000000E+00 0. -1.
          5    1    4    4  501    0  0.16303244712E+03 -0.52814549389E+02  0.43388805961E+03  0.46652962790E+03  0.47000000000E+01 0. -1.
         -5    1    4    4    0  501  0.38609993628E+03  0.68855038437E+01  0.66023789149E+03  0.76489001452E+03  0.47000000000E+01 0. -1.
          1    1    1    2  502    0 -0.88121149626E+02 -0.42752620994E+01  0.23452440534E+04  0.23469029134E+04  0.00000000000E+00 0. -1.
          1    1    1    2  503    0 -0.13720907185E+03  0.70058170035E+02 -0.15462285554E+04  0.15538845588E+04  0.00000000000E+00 0. -1.
<mgrwt>
<rscale>  0 0.11669434E+03</rscale>
<asrwt>0</asrwt>
<pdfrwt beam="1">  1        2 0.54175430E+00 0.88224797E+02</pdfrwt>
<pdfrwt beam="2">  1        2 0.27951423E+00 0.15435080E+03</pdfrwt>
<totfact> 0.18434541E+00</totfact>
</mgrwt>
</event>
<event>
13    1  0.2101801E-008  0.8881190E+02  0.7546771E-02  0.1327790E+00
          2   -1    0    0  502    0  0.00000000000E+00  0.00000000000E+00  0.17398491196E+04  0.17398491196E+04  0.00000000000E+00 0. -1.
          2   -1    0    0  503    0 -0.00000000000E+00 -0.00000000000E+00 -0.14948740570E+04  0.14948740570E+04  0.00000000000E+00 0. -1.
         24    2    1    2    0    0 -0.25638831476E+02 -0.52329165615E+02 -0.94727496286E+03  0.95185347216E+03  0.72797568392E+02 0.  0.
         25    2    1    2    0    0 -0.11116653732E+03  0.88006607490E+02  0.38003416797E+03  0.42444944448E+03  0.12501279977E+03 0.  0.
         24    2    1    2    0    0  0.61227178576E+02 -0.74037323368E+02 -0.11896145954E+02  0.12501409534E+03  0.79099387468E+02 0.  0.
        -11    1    5    5    0    0 -0.17787508990E+02 -0.27300332299E+02 -0.48356166345E+01  0.32940655851E+02  0.00000000000E+00 0.  1.
         12    1    5    5    0    0  0.79014687566E+02 -0.46736991069E+02 -0.70605293197E+01  0.92073439491E+02  0.00000000000E+00 0. -1.
        -13    1    3    3    0    0 -0.27843448211E+02  0.68654365214E+01 -0.47721079237E+03  0.47807168100E+03  0.00000000000E+00 0.  1.
         14    1    3    3    0    0  0.22046167350E+01 -0.59194602136E+02 -0.47006417049E+03  0.47378179116E+03  0.00000000000E+00 0. -1.
          5    1    4    4  501    0 -0.66227861169E+02  0.10958589634E+03  0.19951972823E+03  0.23711897905E+03  0.47000000000E+01 0.  1.
         -5    1    4    4    0  501 -0.44938676154E+02 -0.21579288852E+02  0.18051443974E+03  0.18733046543E+03  0.47000000000E+01 0.  1.
          1    1    1    2  502    0  0.63565985320E+02 -0.62023537644E+02  0.12715706463E+04  0.12746683735E+04  0.00000000000E+00 0. -1.
          1    1    1    2  503    0  0.12012204903E+02  0.10038341914E+03 -0.44745864290E+03  0.45873779113E+03  0.00000000000E+00 0. -1.
<mgrwt>
<rscale>  0 0.80446046E+02</rscale>
<asrwt>0</asrwt>
<pdfrwt beam="1">  1        2 0.25586017E+00 0.88811901E+02</pdfrwt>
<pdfrwt beam="2">  1        2 0.21983442E+00 0.72868234E+02</pdfrwt>
<totfact> 0.31787149E+01</totfact>
</mgrwt>
</event>
<event>
13    1  0.2101801E-008  0.1288835E+03  0.7546771E-02  0.1284384E+00
          2   -1    0    0  503    0  0.00000000000E+00  0.00000000000E+00  0.14564707790E+04  0.14564707790E+04  0.00000000000E+00 0. -1.
          2   -1    0    0  502    0 -0.00000000000E+00 -0.00000000000E+00 -0.30139596330E+04  0.30139596330E+04  0.00000000000E+00 0. -1.
         24    2    1    2    0    0  0.36120762941E+02 -0.23275978729E+02  0.18201509084E+02  0.91309725886E+02  0.78483695168E+02 0.  0.
         25    2    1    2    0    0  0.17419319317E+03  0.11311905064E+03  0.20372587281E+02  0.24326598228E+03  0.12499643057E+03 0.  0.
         24    2    1    2    0    0 -0.66926719828E+01 -0.67782358633E+02  0.27087946690E+03  0.29027972685E+03  0.79040459448E+02 0.  0.
        -13    1    5    5    0    0  0.13301871909E+02 -0.72935941937E+02  0.14643046371E+03  0.16412943710E+03  0.00000000000E+00 0.  1.
         14    1    5    5    0    0 -0.19994543892E+02  0.51535833046E+01  0.12444900319E+03  0.12615028974E+03  0.00000000000E+00 0. -1.
        -13    1    3    3    0    0  0.20113394128E+02  0.28702147429E+02  0.85014768591E+01  0.36064345262E+02  0.00000000000E+00 0.  1.
         14    1    3    3    0    0  0.16007368813E+02 -0.51978126158E+02  0.97000322250E+01  0.55245380625E+02  0.00000000000E+00 0. -1.
          5    1    4    4  501    0  0.14172697074E+03  0.13835218374E+03  0.31024613185E+02  0.20053049046E+03  0.47000000000E+01 0. -1.
         -5    1    4    4    0  501  0.32466222431E+02 -0.25233133100E+02 -0.10652025904E+02  0.42735491816E+02  0.47000000000E+01 0. -1.
          1    1    1    2  502    0 -0.70638396692E+02 -0.24111126250E+02 -0.28512981815E+04  0.28522749603E+04  0.00000000000E+00 0. -1.
          1    1    1    2  503    0 -0.13298288744E+03  0.20504129714E+01  0.98435576424E+03  0.99330001668E+03  0.00000000000E+00 0. -1.
<mgrwt>
<rscale>  0 0.98080896E+02</rscale>
<asrwt>0</asrwt>
<pdfrwt beam="1">  1        2 0.21418688E+00 0.12888347E+03</pdfrwt>
<pdfrwt beam="2">  1        2 0.44322935E+00 0.74639999E+02</pdfrwt>
<totfact> 0.76640269E+00</totfact>
</mgrwt>
</event>
<event>
13    1  0.2101801E-008  0.1234609E+03  0.7546771E-02  0.1334874E+00
          2   -1    0    0  503    0  0.00000000000E+00  0.00000000000E+00  0.25856369050E+04  0.25856369050E+04  0.00000000000E+00 0. -1.
          2   -1    0    0  502    0 -0.00000000000E+00 -0.00000000000E+00 -0.17546079009E+04  0.17546079009E+04  0.00000000000E+00 0. -1.
         24    2    1    2    0    0  0.10770557815E+03  0.37936104356E+02 -0.39342928709E+03  0.42189656400E+03  0.10084873426E+03 0.  0.
         25    2    1    2    0    0  0.21610479169E+02  0.10123282683E+03  0.71670096814E+03  0.73485263734E+03  0.12503208726E+03 0.  0.
         24    2    1    2    0    0  0.42875052483E+02  0.64487972918E+02 -0.54642282466E+02  0.12294575266E+03  0.78312899885E+02 0.  0.
        -11    1    3    3    0    0  0.11844392490E+03  0.31105559054E+02 -0.38991539139E+03  0.40869368920E+03  0.00000000000E+00 0.  1.
         12    1    3    3    0    0 -0.10738346753E+02  0.68305453018E+01 -0.35138956990E+01  0.13202874804E+02  0.00000000000E+00 0. -1.
        -13    1    5    5    0    0 -0.11545258279E+02  0.48059982594E+02 -0.41646143305E+02  0.64633243520E+02  0.00000000000E+00 0.  1.
         14    1    5    5    0    0  0.54420310762E+02  0.16427990324E+02 -0.12996139161E+02  0.58312509143E+02  0.00000000000E+00 0. -1.
          5    1    4    4  501    0  0.12599375335E+01  0.88950069461E+02  0.21712315595E+03  0.23468757349E+03  0.47000000000E+01 0. -1.
         -5    1    4    4    0  501  0.20350541635E+02  0.12282757369E+02  0.49957781219E+03  0.50016506386E+03  0.47000000000E+01 0. -1.
          1    1    1    2  502    0 -0.13487329299E+03 -0.17150567255E+03 -0.12392078792E+04  0.12582691162E+04  0.00000000000E+00 0. -1.
          1    1    1    2  503    0 -0.37317816815E+02 -0.32151231558E+02  0.18016074847E+04  0.18022807357E+04  0.00000000000E+00 0. -1.
<mgrwt>
<rscale>  0 0.77983325E+02</rscale>
<asrwt>0</asrwt>
<pdfrwt beam="1">  1        2 0.38024072E+00 0.49257701E+02</pdfrwt>
<pdfrwt beam="2">  1        2 0.25803057E+00 0.12346088E+03</pdfrwt>
<totfact> 0.96138681E+00</totfact>
</mgrwt>
</event>
<event>
13    1  0.2101801E-008  0.2176188E+03  0.7546771E-02  0.1244874E+00
          2   -1    0    0  502    0  0.00000000000E+00  0.00000000000E+00  0.40491729826E+04  0.40491729826E+04  0.00000000000E+00 0. -1.
          2   -1    0    0  503    0 -0.00000000000E+00 -0.00000000000E+00 -0.30294093468E+04  0.30294093468E+04  0.00000000000E+00 0. -1.
         24    2    1    2    0    0 -0.16666119804E+03  0.45090269020E+02 -0.22559958762E+03  0.29546663075E+03  0.81217415969E+02 0.  0.
         25    2    1    2    0    0  0.25739091090E+03  0.38245357192E+02  0.24115525376E+04  0.24287697142E+04  0.12499557836E+03 0.  0.
         24    2    1    2    0    0 -0.94152945791E+02  0.83457649146E+02  0.73754421261E+02  0.16619966429E+03  0.79703559210E+02 0.  0.
        -11    1    5    5    0    0  0.90518856137E+01  0.45811996951E+01  0.25821205032E+02  0.27742722526E+02  0.00000000000E+00 0.  1.
         12    1    5    5    0    0 -0.10320483140E+03  0.78876449451E+02  0.47933216229E+02  0.13845694176E+03  0.00000000000E+00 0. -1.
        -11    1    3    3    0    0 -0.19077943840E+02 -0.17964371214E+02 -0.13460440363E+02  0.29459633892E+02  0.00000000000E+00 0.  1.
         12    1    3    3    0    0 -0.14758325420E+03  0.63054640234E+02 -0.21213914726E+03  0.26600699685E+03  0.00000000000E+00 0. -1.
          5    1    4    4  501    0  0.12891001714E+03  0.23735128516E+00  0.16865203060E+04  0.16914463282E+04  0.47000000000E+01 0.  1.
         -5    1    4    4    0  501  0.12848089376E+03  0.38008005907E+02  0.72503223164E+03  0.73732338597E+03  0.47000000000E+01 0.  1.
          1    1    1    2  502    0  0.64598073771E+00  0.64992113679E+02  0.14684316762E+04  0.14698693751E+04  0.00000000000E+00 0. -1.
          1    1    1    2  503    0  0.27772521926E+01 -0.23178538904E+03 -0.27083754116E+04  0.27182769450E+04  0.00000000000E+00 0. -1.
<mgrwt>
<rscale>  0 0.11892940E+03</rscale>
<asrwt>0</asrwt>
<pdfrwt beam="1">  1        2 0.59546661E+00 0.64995324E+02</pdfrwt>
<pdfrwt beam="2">  1        2 0.44550138E+00 0.21761878E+03</pdfrwt>
<totfact> 0.29077617E-01</totfact>
</mgrwt>
</event>
<event>
13    1  0.2101801E-008  0.1091356E+03  0.7546771E-02  0.1268019E+00
          2   -1    0    0  503    0  0.00000000000E+00  0.00000000000E+00  0.61666560707E+03  0.61666560707E+03  0.00000000000E+00 0. -1.
          2   -1    0    0  502    0 -0.00000000000E+00 -0.00000000000E+00 -0.29769983696E+04  0.29769983696E+04  0.00000000000E+00 0. -1.
         24    2    1    2    0    0  0.45421387117E+01 -0.16184362193E+01 -0.20112944432E+04  0.20131091618E+04  0.85322387118E+02 0.  0.
         25    2    1    2    0    0 -0.66917299036E+02 -0.12847670998E+03 -0.39821883588E+02  0.19543543964E+03  0.12500015495E+03 0.  0.
         24    2    1    2    0    0  0.34707326213E+02 -0.96678324408E+02  0.18108636423E+03  0.22313497439E+03  0.80284796719E+02 0.  0.
        -11    1    5    5    0    0  0.50563548137E+02 -0.98344780765E+02  0.13582698424E+03  0.17514947317E+03  0.00000000000E+00 0.  1.
         12    1    5    5    0    0 -0.15856221924E+02  0.16664563571E+01  0.45259379994E+02  0.47985501226E+02  0.00000000000E+00 0. -1.
        -11    1    3    3    0    0  0.29963372836E+02  0.23124176265E+02 -0.15464406044E+04  0.15469037055E+04  0.00000000000E+00 0.  1.
         12    1    3    3    0    0 -0.25421234124E+02 -0.24742612484E+02 -0.46485383881E+03  0.46620545629E+03  0.00000000000E+00 0. -1.
          5    1    4    4  501    0 -0.60378951332E+02 -0.15345566751E+03 -0.31987388886E+02  0.16804625168E+03  0.47000000000E+01 0. -1.
         -5    1    4    4    0  501 -0.65383477044E+01  0.24978957533E+02 -0.78344947019E+01  0.27389187965E+02  0.47000000000E+01 0. -1.
          1    1    1    2  502    0 -0.39094988824E+02  0.12063916402E+03 -0.80932803274E+03  0.81920332679E+03  0.00000000000E+00 0. -1.
          1    1    1    2  503    0  0.66762822936E+02  0.10613430659E+03  0.31902523277E+03  0.34278107402E+03  0.00000000000E+00 0. -1.
<mgrwt>
<rscale>  0 0.10607343E+03</rscale>
<asrwt>0</asrwt>
<pdfrwt beam="1">  1        2 0.90686120E-01 0.10913564E+03</pdfrwt>
<pdfrwt beam="2">  1        2 0.43779387E+00 0.10309715E+03</pdfrwt>
<totfact> 0.24233923E+01</totfact>
</mgrwt>
</event>
<event>
13    1  0.2101801E-008  0.1175957E+03  0.7546771E-02  0.1321158E+00
          2   -1    0    0  502    0  0.00000000000E+00  0.00000000000E+00  0.13635210832E+04  0.13635210832E+04  0.00000000000E+00 0. -1.
          2   -1    0    0  503    0 -0.00000000000E+00 -0.00000000000E+00 -0.10975628976E+04  0.10975628976E+04  0.00000000000E+00 0. -1.
         24    2    1    2    0    0 -0.25357278121E+03  0.61426795577E+02  0.14667640738E+03  0.30978520113E+03  0.79878005567E+02 0.  0.
         25    2    1    2    0    0  0.16567736937E+03 -0.16101311309E+03  0.10135252630E+03  0.28154897542E+03  0.12499311047E+03 0.  0.
         24    2    1    2    0    0  0.57106138104E+02 -0.12733087720E+02  0.12337466904E+03  0.15824195397E+03  0.79974774162E+02 0.  0.
        -11    1    3    3    0    0 -0.92065437019E+02  0.56230657882E+01  0.92246424170E+02  0.13044947809E+03  0.00000000000E+00 0.  1.
         12    1    3    3    0    0 -0.16150734419E+03  0.55803729789E+02  0.54429983206E+02  0.17933572304E+03  0.00000000000E+00 0. -1.
        -13    1    5    5    0    0  0.36317131836E+02 -0.46682020172E+02  0.77807159484E+02  0.97734840969E+02  0.00000000000E+00 0.  1.
         14    1    5    5    0    0  0.20789006268E+02  0.33948932452E+02  0.45567509555E+02  0.60507112997E+02  0.00000000000E+00 0. -1.
          5    1    4    4  501    0  0.12376321142E+03 -0.64458795498E+02  0.64904631890E+01  0.13977297640E+03  0.47000000000E+01 0. -1.
         -5    1    4    4    0  501  0.41914157945E+02 -0.96554317590E+02  0.94862063106E+02  0.14177599902E+03  0.47000000000E+01 0. -1.
          1    1    1    2  502    0 -0.51133574692E+02  0.28145192875E+02  0.79816446460E+03  0.80029576213E+03  0.00000000000E+00 0. -1.
          1    1    1    2  503    0  0.81922848431E+02  0.84174212357E+02 -0.90360988172E+03  0.91121208808E+03  0.00000000000E+00 0. -1.
<mgrwt>
<rscale>  0 0.82848028E+02</rscale>
<asrwt>0</asrwt>
<pdfrwt beam="1">  1        2 0.20051781E+00 0.58367751E+02</pdfrwt>
<pdfrwt beam="2">  1        2 0.16140631E+00 0.11759569E+03</pdfrwt>
<totfact> 0.77834556E+01</totfact>
</mgrwt>
</event>
<event>
13    1  0.2101801E-008  0.1446575E+03  0.7546771E-02  0.1332589E+00
          2   -1    0    0  502    0  0.00000000000E+00  0.00000000000E+00  0.26109401144E+03  0.26109401144E+03  0.00000000000E+00 0. -1.
          2   -1    0    0  503    0 -0.00000000000E+00 -0.00000000000E+00 -0.19453844300E+04  0.19453844300E+04  0.00000000000E+00 0. -1.
         24    2    1    2    0    0 -0.30119750045E+02  0.17742652955E+03 -0.69356581586E+03  0.72104897084E+03  0.80564909842E+02 0.  0.
         25    2    1    2    0    0 -0.15709704703E+01  0.15473118329E+00 -0.46352046765E+02  0.13334581200E+03  0.12502040413E+03 0.  0.
         24    2    1    2    0    0 -0.29013506579E+02 -0.84161155012E+02 -0.74225741407E+03  0.75219121504E+03  0.83190574442E+02 0.  0.
        -13    1    5    5    0    0 -0.64884790307E+01 -0.95984180877E+02 -0.60384412270E+03  0.61145955537E+03  0.00000000000E+00 0.  1.
         14    1    5    5    0    0 -0.22525027548E+02  0.11823025864E+02 -0.13841329137E+03  0.14073165967E+03  0.00000000000E+00 0. -1.
        -13    1    3    3    0    0  0.17682417724E+02  0.44996628378E+02 -0.10083451835E+03  0.11182559883E+03  0.00000000000E+00 0.  1.
         14    1    3    3    0    0 -0.47802167769E+02  0.13242990117E+03 -0.59273129751E+03  0.60922337202E+03  0.00000000000E+00 0. -1.
          5    1    4    4  501    0 -0.41580790103E+02  0.47192085131E+00  0.26898816964E+02  0.49747574503E+02  0.47000000000E+01 0. -1.
         -5    1    4    4    0  501  0.40009819632E+02 -0.31718966803E+00 -0.73250863728E+02  0.83598237501E+02  0.47000000000E+01 0. -1.
          1    1    1    2  502    0  0.10280151574E+03 -0.10162005210E+03  0.17123342718E+03  0.22408853878E+03  0.00000000000E+00 0. -1.
          1    1    1    2  503    0 -0.42097288641E+02  0.81999463816E+01 -0.37334856910E+03  0.37580390482E+03  0.00000000000E+00 0. -1.
<mgrwt>
<rscale>  0 0.78766347E+02</rscale>
<asrwt>0</asrwt>
<pdfrwt beam="1">  1        2 0.38396177E-01 0.14465747E+03</pdfrwt>
<pdfrwt beam="2">  1        2 0.28608595E+00 0.42888470E+02</pdfrwt>
<totfact> 0.21894675E+02</totfact>
</mgrwt>
</event>
<event>
13    1  0.2101801E-008  0.1387544E+03  0.7546771E-02  0.1237924E+00
          2   -1    0    0  502    0  0.00000000000E+00  0.00000000000E+00  0.21773835838E+04  0.21773835838E+04  0.00000000000E+00 0. -1.
          2   -1    0    0  503    0 -0.00000000000E+00 -0.00000000000E+00 -0.20181433208E+04  0.20181433208E+04  0.00000000000E+00 0. -1.
         24    2    1    2    0    0  0.18243671978E+03  0.15160564040E+03 -0.18810717871E+03  0.31294549868E+03  0.79266307704E+02 0.  0.
         25    2    1    2    0    0  0.82325048836E+02 -0.15781228385E+03  0.63538693159E+03  0.67158253762E+03  0.12499768556E+03 0.  0.
         24    2    1    2    0    0 -0.18897140560E+03 -0.22976957989E+03  0.45781702226E+03  0.55290083642E+03  0.87170276299E+02 0.  0.
        -11    1    3    3    0    0  0.57893734829E+02  0.22570128071E+02 -0.15505689794E+02  0.64043123203E+02  0.00000000000E+00 0.  1.
         12    1    3    3    0    0  0.12454298495E+03  0.12903551232E+03 -0.17260148892E+03  0.24890237548E+03  0.00000000000E+00 0. -1.
        -11    1    5    5    0    0 -0.17491082237E+03 -0.21559681951E+03  0.36847983343E+03  0.46136013266E+03  0.00000000000E+00 0.  1.
         12    1    5    5    0    0 -0.14060583227E+02 -0.14172760389E+02  0.89337188831E+02  0.91540703766E+02  0.00000000000E+00 0. -1.
          5    1    4    4  501    0  0.81921219124E+02 -0.11173233090E+03  0.27233309086E+03  0.30558567095E+03  0.47000000000E+01 0. -1.
         -5    1    4    4    0  501  0.40382971161E+00 -0.46079952951E+02  0.36305384074E+03  0.36599686667E+03  0.47000000000E+01 0. -1.
          1    1    1    2  502    0 -0.35143701469E+02  0.10357258624E+03  0.95016072357E+03  0.95643492250E+03  0.00000000000E+00 0. -1.
          1    1    1    2  503    0 -0.40646661549E+02  0.13240363711E+03 -0.16960172357E+04  0.17016631094E+04  0.00000000000E+00 0. -1.
<mgrwt>
<rscale>  0 0.12319060E+03</rscale>
<asrwt>0</asrwt>
<pdfrwt beam="1">  1        2 0.32020347E+00 0.10937258E+03</pdfrwt>
<pdfrwt beam="2">  1        2 0.29678578E+00 0.13875438E+03</pdfrwt>
<totfact> 0.10069887E+01</totfact>
</mgrwt>
</event>
<event>
13    1  0.2101801E-008  0.2837157E+03  0.7546771E-02  0.1277909E+00
          2   -1    0    0  502    0  0.00000000000E+00  0.00000000000E+00  0.23347011846E+04  0.23347011846E+04  0.00000000000E+00 0. -1.
          2   -1    0    0  503    0 -0.00000000000E+00 -0.00000000000E+00 -0.20030729319E+04  0.20030729319E+04  0.00000000000E+00 0. -1.
         24    2    1    2    0    0 -0.85300692714E+02 -0.17645507782E+03 -0.13787900230E+04  0.13948689004E+04  0.78642985085E+02 0.  0.
         25    2    1    2    0    0  0.10014648593E+02  0.15891659044E+03  0.67391630789E+03  0.70366443997E+03  0.12500271255E+03 0.  0.
         24    2    1    2    0    0 -0.21481349067E+03  0.23179393743E+03  0.21796546640E+02  0.32668104144E+03  0.79825736385E+02 0.  0.
        -11    1    3    3    0    0 -0.15538540473E+02 -0.12045553708E+03 -0.82851582344E+03  0.83737055856E+03  0.00000000000E+00 0.  1.
         12    1    3    3    0    0 -0.69762152241E+02 -0.55999540734E+02 -0.55027419956E+03  0.55749834184E+03  0.00000000000E+00 0. -1.
        -13    1    5    5    0    0 -0.20533949221E+02  0.70061100922E+02  0.91092077282E+01  0.73574306646E+02  0.00000000000E+00 0.  1.
         14    1    5    5    0    0 -0.19427954145E+03  0.16173283651E+03  0.12687338912E+02  0.25310673480E+03  0.00000000000E+00 0. -1.
          5    1    4    4  501    0 -0.17966499531E+02 -0.72385927317E+01  0.19372498553E+03  0.19474766327E+03  0.47000000000E+01 0. -1.
         -5    1    4    4    0  501  0.27981148125E+02  0.16615518317E+03  0.48019132235E+03  0.50891677670E+03  0.47000000000E+01 0. -1.
          1    1    1    2  502    0 -0.29859632027E+02  0.20212153582E+02  0.13757252481E+04  0.13761976919E+04  0.00000000000E+00 0. -1.
          1    1    1    2  503    0  0.31995916682E+03 -0.23446760363E+03 -0.36101982695E+03  0.53636204288E+03  0.00000000000E+00 0. -1.
<mgrwt>
<rscale>  0 0.10114357E+03</rscale>
<asrwt>0</asrwt>
<pdfrwt beam="1">  1        2 0.34333841E+00 0.36057299E+02</pdfrwt>
<pdfrwt beam="2">  1        2 0.29456955E+00 0.28371570E+03</pdfrwt>
<totfact> 0.92329306E+00</totfact>
</mgrwt>
</event>
<event>
13    1  0.2101801E-008  0.1492321E+03  0.7546771E-02  0.1404266E+00
          2   -1    0    0  502    0  0.00000000000E+00  0.00000000000E+00  0.23251448998E+04  0.23251448998E+04  0.00000000000E+00 0. -1.
          2   -1    0    0  503    0 -0.00000000000E+00 -0.00000000000E+00 -0.97620217543E+03  0.97620217543E+03  0.00000000000E+00 0. -1.
         24    2    1    2    0    0  0.13480931746E+02 -0.92189698017E+02 -0.37777164558E+03  0.40313215171E+03  0.10546771829E+03 0.  0.
         25    2    1    2    0    0 -0.25064543229E+03  0.30695034726E+03  0.12865001094E+04  0.13519420411E+04  0.12499241018E+03 0.  0.
         24    2    1    2    0    0  0.38761859702E+03 -0.24574095774E+03 -0.32441773810E+03  0.56778674904E+03  0.80610970229E+02 0.  0.
        -11    1    5    5    0    0  0.28932511892E+03 -0.16987138660E+03 -0.19331286837E+03  0.38721464010E+03  0.00000000000E+00 0.  1.
         12    1    5    5    0    0  0.98293478093E+02 -0.75869571143E+02 -0.13110486973E+03  0.18057210894E+03  0.00000000000E+00 0. -1.
        -13    1    3    3    0    0 -0.44516246482E+02 -0.58060354175E+02 -0.18425645312E+03  0.19825019911E+03  0.00000000000E+00 0.  1.
         14    1    3    3    0    0  0.57997178227E+02 -0.34129343842E+02 -0.19351519245E+03  0.20488195261E+03  0.00000000000E+00 0. -1.
          5    1    4    4  501    0 -0.86684196942E+02  0.67649519359E+02  0.53886164005E+03  0.54998596763E+03  0.47000000000E+01 0.  1.
         -5    1    4    4    0  501 -0.16396123535E+03  0.23930082790E+03  0.74763846933E+03  0.80195607345E+03  0.47000000000E+01 0.  1.
          1    1    1    2  502    0  0.63830047501E+01 -0.22020606441E+02  0.80721995252E+03  0.80754547959E+03  0.00000000000E+00 0. -1.
          1    1    1    2  503    0 -0.15683710122E+03  0.53000914945E+02 -0.42587953863E+02  0.17094065379E+03  0.00000000000E+00 0. -1.
<mgrwt>
<rscale>  0 0.58493186E+02</rscale>
<asrwt>0</asrwt>
<pdfrwt beam="1">  1        2 0.34193307E+00 0.22927055E+02</pdfrwt>
<pdfrwt beam="2">  1        2 0.14355914E+00 0.14923211E+03</pdfrwt>
<totfact> 0.35934122E+01</totfact>
</mgrwt>
</event>
<event>
13    1  0.2101801E-008  0.9394830E+02  0.7546771E-02  0.1421636E+00
         -1   -1    0    0    0  501 -0.00000000000E+00  0.00000000000E+00  0.88697837217E+03  0.88697837217E+03  0.00000000000E+00 0.  1.
          2   -1    0    0  503    0  0.00000000000E+00 -0.00000000000E+00 -0.42466259659E+03  0.42466259659E+03  0.00000000000E+00 0. -1.
         24    2    1    2    0    0 -0.47384308628E+01  0.63183042250E+00 -0.10886674088E+03  0.13965187959E+03  0.87337439098E+02 0.  0.
         25    2    1    2    0    0  0.53210274641E+02 -0.14703951516E+03  0.24839433670E+03  0.31903094495E+03  0.12501617890E+03 0.  0.
         24    2    1    2    0    0 -0.38051433980E+02  0.23750220928E+02 -0.97137982242E+01  0.92763425601E+02  0.80614580761E+02 0.  0.
        -13    1    3    3    0    0  0.33239565496E+02  0.10889995338E+02 -0.15350366791E+02  0.38198095154E+02  0.00000000000E+00 0.  1.
         14    1    3    3    0    0 -0.37977996359E+02 -0.10258164915E+02 -0.93516374086E+02  0.10145378444E+03  0.00000000000E+00 0. -1.
        -13    1    5    5    0    0  0.45047438766E+01 -0.22072669184E+02  0.13260529816E+02  0.26140717153E+02  0.00000000000E+00 0.  1.
         14    1    5    5    0    0 -0.42556177857E+02  0.45822890112E+02 -0.22974328041E+02  0.66622708448E+02  0.00000000000E+00 0. -1.
          5    1    4    4  502    0  0.52918638547E+01  0.22480586906E+02  0.23097298717E+02  0.32999330579E+02  0.47000000000E+01 0. -1.
         -5    1    4    4    0  502  0.47918410787E+02 -0.16952010207E+03  0.22529703798E+03  0.28603161437E+03  0.47000000000E+01 0. -1.
          1    1    1    2  503    0 -0.21621590177E+02  0.92873455295E+02 -0.20272002378E+03  0.22402763200E+03  0.00000000000E+00 0. -1.
         -2    1    1    2    0  501  0.11201180379E+02  0.29784008514E+02  0.53522200176E+03  0.53616708661E+03  0.00000000000E+00 0.  1.
<mgrwt>
<rscale>  0 0.54676281E+02</rscale>
<asrwt>0</asrwt>
<pdfrwt beam="2">  1        2 0.62450382E-01 0.93948298E+02</pdfrwt>
<pdfrwt beam="1">  1       -1 0.13043800E+00 0.31820647E+02</pdfrwt>
<totfact> 0.55617479E+01</totfact>
</mgrwt>
</event>
<event>
13    1  0.2101801E-008  0.2363318E+03  0.7546771E-02  0.1271587E+00
          2   -1    0    0  502    0  0.00000000000E+00  0.00000000000E+00  0.86617667262E+03  0.86617667262E+03  0.00000000000E+00 0. -1.
          2   -1    0    0  503    0 -0.00000000000E+00 -0.00000000000E+00 -0.21481721387E+04  0.21481721387E+04  0.00000000000E+00 0. -1.
         24    2    1    2    0    0  0.20982872329E+03  0.16207633341E+03 -0.37610461498E+03  0.46723447698E+03  0.80972489759E+02 0.  0.
         25    2    1    2    0    0 -0.36391531239E+01 -0.25939154674E+03  0.56907425210E+03  0.63779040169E+03  0.12503549152E+03 0.  0.
         24    2    1    2    0    0  0.37673024323E+01  0.22825759995E+02 -0.37044570592E+02  0.90146874945E+02  0.78860325672E+02 0.  0.
        -11    1    5    5    0    0  0.38622767362E+02 -0.23828514922E+01 -0.12739841716E+02  0.40739412206E+02  0.00000000000E+00 0.  1.
         12    1    5    5    0    0 -0.34855464930E+02  0.25208611487E+02 -0.24304728875E+02  0.49407462739E+02  0.00000000000E+00 0. -1.
        -13    1    3    3    0    0  0.26804112775E+02 -0.29124296701E+01 -0.17550428248E+02  0.32170797937E+02  0.00000000000E+00 0.  1.
         14    1    3    3    0    0  0.18302461051E+03  0.16498876308E+03 -0.35855418673E+03  0.43506367904E+03  0.00000000000E+00 0. -1.
          5    1    4    4  501    0  0.53737480715E+02 -0.72033167622E+02  0.21524072773E+03  0.23329628147E+03  0.47000000000E+01 0. -1.
         -5    1    4    4    0  501 -0.57376633839E+02 -0.18735837911E+03  0.35383352436E+03  0.40449412023E+03  0.47000000000E+01 0. -1.
          1    1    1    2  502    0  0.31626929530E+02  0.33394702438E+02  0.17847758197E+03  0.18430875206E+03  0.00000000000E+00 0. -1.
          1    1    1    2  503    0 -0.24158380213E+03  0.41094750898E+02 -0.16163981146E+04  0.16348683057E+04  0.00000000000E+00 0. -1.
<mgrwt>
<rscale>  0 0.10425880E+03</rscale>
<asrwt>0</asrwt>
<pdfrwt beam="1">  1        2 0.12737892E+00 0.45994226E+02</pdfrwt>
<pdfrwt beam="2">  1        2 0.31590767E+00 0.23633178E+03</pdfrwt>
<totfact> 0.40228431E+01</totfact>
</mgrwt>
</event>
<event>
13    1  0.2101801E-008  0.1510662E+03  0.7546771E-02  0.1328735E+00
          2   -1    0    0  502    0  0.00000000000E+00  0.00000000000E+00  0.27016522187E+04  0.27016522187E+04  0.00000000000E+00 0. -1.
          2   -1    0    0  503    0 -0.00000000000E+00 -0.00000000000E+00 -0.14587039919E+04  0.14587039919E+04  0.00000000000E+00 0. -1.
         24    2    1    2    0    0  0.15006110846E+03  0.98039178292E+02 -0.30751584250E+03  0.36470921897E+03  0.79478325742E+02 0.  0.
         25    2    1    2    0    0 -0.15180827678E+03 -0.63302406145E+03  0.22213427052E+03  0.69909423735E+03  0.12499561305E+03 0.  0.
         24    2    1    2    0    0 -0.18438735754E+03  0.58489922119E+03  0.50027192917E+03  0.79910998837E+03  0.11044896487E+03 0.  0.
        -13    1    3    3    0    0  0.88144874069E+02  0.21596917058E+02 -0.19609382287E+03  0.21607575759E+03  0.00000000000E+00 0.  1.
         14    1    3    3    0    0  0.61916234392E+02  0.76442261234E+02 -0.11142201963E+03  0.14863346138E+03  0.00000000000E+00 0. -1.
        -13    1    5    5    0    0 -0.82994159000E+01  0.10564111604E+03  0.13351557537E+03  0.17045625412E+03  0.00000000000E+00 0.  1.
         14    1    5    5    0    0 -0.17608794164E+03  0.47925810515E+03  0.36675635380E+03  0.62865373425E+03  0.00000000000E+00 0. -1.
          5    1    4    4  501    0 -0.16322342738E+03 -0.54176988588E+03  0.21963610085E+03  0.60697496101E+03  0.47000000000E+01 0.  1.
         -5    1    4    4    0  501  0.11415150599E+02 -0.91254175568E+02  0.24981696645E+01  0.92119276340E+02  0.47000000000E+01 0.  1.
          1    1    1    2  502    0  0.14390571440E+03 -0.45267617121E+02  0.15584909644E+04  0.15657752387E+04  0.00000000000E+00 0. -1.
          1    1    1    2  503    0  0.42228811448E+02 -0.46467209104E+01 -0.73043309477E+03  0.73166752728E+03  0.00000000000E+00 0. -1.
<mgrwt>
<rscale>  0 0.80111489E+02</rscale>
<asrwt>0</asrwt>
<pdfrwt beam="1">  1        2 0.39730180E+00 0.15106620E+03</pdfrwt>
<pdfrwt beam="2">  1        2 0.21451529E+00 0.42483697E+02</pdfrwt>
<totfact> 0.10938396E+01</totfact>
</mgrwt>
</event>
<event>
13    1  0.2101801E-008  0.9797069E+02  0.7546771E-02  0.1323466E+00
          2   -1    0    0  502    0  0.00000000000E+00  0.00000000000E+00  0.15536427428E+04  0.15536427428E+04  0.00000000000E+00 0. -1.
          2   -1    0    0  503    0 -0.00000000000E+00 -0.00000000000E+00 -0.17512190500E+04  0.17512190500E+04  0.00000000000E+00 0. -1.
         24    2    1    2    0    0 -0.40415105747E+02 -0.11617467282E+03 -0.57161414187E+03  0.59011303154E+03  0.79754168740E+02 0.  0.
         25    2    1    2    0    0 -0.90112943847E+02  0.27397766927E+03  0.20916098844E+03  0.37755916985E+03  0.12497400427E+03 0.  0.
         24    2    1    2    0    0  0.93239738954E+02 -0.98924448101E+01 -0.41464389177E+03  0.43318626217E+03  0.83242245067E+02 0.  0.
        -11    1    5    5    0    0  0.20515627517E+02  0.35947068433E+01 -0.26930573746E+03  0.27010996486E+03  0.00000000000E+00 0.  1.
         12    1    5    5    0    0  0.72724111437E+02 -0.13487151653E+02 -0.14533815431E+03  0.16307629730E+03  0.00000000000E+00 0. -1.
        -13    1    3    3    0    0 -0.44571085572E+02 -0.41667173517E+02 -0.14980322319E+03  0.16175209642E+03  0.00000000000E+00 0.  1.
         14    1    3    3    0    0  0.41559798247E+01 -0.74507499300E+02 -0.42181091868E+03  0.42836093512E+03  0.00000000000E+00 0. -1.
          5    1    4    4  501    0 -0.81795923769E+02  0.12377007008E+03  0.45582565568E+02  0.15527222442E+03  0.47000000000E+01 0.  1.
         -5    1    4    4    0  501 -0.83170200778E+01  0.15020759919E+03  0.16357842288E+03  0.22228694543E+03  0.47000000000E+01 0.  1.
          1    1    1    2  502    0 -0.92383904545E+01 -0.97452550899E+02  0.12380465385E+04  0.12419104553E+04  0.00000000000E+00 0. -1.
          1    1    1    2  503    0  0.46526701095E+02 -0.50458000739E+02 -0.65852580054E+03  0.66209287395E+03  0.00000000000E+00 0. -1.
<mgrwt>
<rscale>  0 0.82001247E+02</rscale>
<asrwt>0</asrwt>
<pdfrwt beam="1">  1        2 0.22847687E+00 0.97970692E+02</pdfrwt>
<pdfrwt beam="2">  1        2 0.25753221E+00 0.68634858E+02</pdfrwt>
<totfact> 0.29391938E+01</totfact>
</mgrwt>
</event>
<event>
13    1  0.2101801E-008  0.1725580E+03  0.7546771E-02  0.1280505E+00
          2   -1    0    0  503    0  0.00000000000E+00  0.00000000000E+00  0.22218263839E+04  0.22218263839E+04  0.00000000000E+00 0. -1.
          2   -1    0    0  502    0 -0.00000000000E+00 -0.00000000000E+00 -0.12057517417E+04  0.12057517417E+04  0.00000000000E+00 0. -1.
         24    2    1    2    0    0  0.82116564677E+02  0.19333853635E+03 -0.12256923272E+03  0.25646285363E+03  0.81406748168E+02 0.  0.
         25    2    1    2    0    0 -0.10319932971E+03 -0.62727963011E+02  0.42915944995E+03  0.46301891843E+03  0.12499514527E+03 0.  0.
         24    2    1    2    0    0 -0.11756671189E+02 -0.15269390034E+01  0.30435674782E+02  0.87674774704E+02  0.81363290001E+02 0.  0.
        -11    1    3    3    0    0  0.97980907559E+00  0.74992859120E+02 -0.13447727515E+02  0.76195343166E+02  0.00000000000E+00 0.  1.
         12    1    3    3    0    0  0.81136755601E+02  0.11834567723E+03 -0.10912150521E+03  0.18026751046E+03  0.00000000000E+00 0. -1.
        -11    1    5    5    0    0  0.13296004279E+01  0.37319658419E+02  0.27881558053E+02  0.46603712526E+02  0.00000000000E+00 0.  1.
         12    1    5    5    0    0 -0.13086271617E+02 -0.38846597422E+02  0.25541167295E+01  0.41071062178E+02  0.00000000000E+00 0. -1.
          5    1    4    4  501    0 -0.11938101916E+03 -0.70410631820E+02  0.42010983912E+03  0.44240688481E+03  0.47000000000E+01 0. -1.
         -5    1    4    4    0  501  0.16181689447E+02  0.76826688082E+01  0.90496108367E+01  0.20612033613E+02  0.47000000000E+01 0. -1.
          1    1    1    2  502    0 -0.85925176981E+01 -0.16943773800E+03 -0.96276027801E+03  0.97759415472E+03  0.00000000000E+00 0. -1.
          1    1    1    2  503    0  0.41431953920E+02  0.40354103666E+02  0.16418090282E+04  0.16428274242E+04  0.00000000000E+00 0. -1.
<mgrwt>
<rscale>  0 0.99900717E+02</rscale>
<asrwt>0</asrwt>
<pdfrwt beam="1">  1        2 0.32673917E+00 0.57836498E+02</pdfrwt>
<pdfrwt beam="2">  1        2 0.17731643E+00 0.17255805E+03</pdfrwt>
<totfact> 0.26072352E+01</totfact>
</mgrwt>
</event>
<event>
13    1  0.2101801E-008  0.7287318E+02  0.7546771E-02  0.1432704E+00
          2   -1    0    0  503    0  0.00000000000E+00  0.00000000000E+00  0.21832031916E+04  0.21832031916E+04  0.00000000000E+00 0. -1.
         -1   -1    0    0    0  501 -0.00000000000E+00 -0.00000000000E+00 -0.17558434198E+04  0.17558434198E+04  0.00000000000E+00 0.  1.
         24    2    1    2    0    0 -0.10334233669E+03 -0.28134267231E+02 -0.21159334168E+03  0.25066228960E+03  0.81170595905E+02 0.  0.
         25    2    1    2    0    0  0.10670053065E+03 -0.95489348244E+02  0.15624678166E+04  0.15739867819E+04  0.12500197160E+03 0.  0.
         24    2    1    2    0    0  0.22896945766E+02  0.14764454463E+03  0.11550643895E+02  0.17202443696E+03  0.84473711018E+02 0.  0.
        -11    1    5    5    0    0  0.11521103371E+02 -0.89743816448E+01  0.84149648091E+00  0.14628173677E+02  0.00000000000E+00 0.  1.
         12    1    5    5    0    0  0.11375842395E+02  0.15661892628E+03  0.10709147414E+02  0.15739626329E+03  0.00000000000E+00 0. -1.
        -13    1    3    3    0    0 -0.23817242283E+02 -0.26709961369E+02 -0.15400123532E+02  0.38959554298E+02  0.00000000000E+00 0.  1.
         14    1    3    3    0    0 -0.79525094407E+02 -0.14243058623E+01 -0.19619321815E+03  0.21170273531E+03  0.00000000000E+00 0. -1.
          5    1    4    4  502    0  0.13349550746E+03 -0.63016477073E+02  0.12053530562E+04  0.12143682336E+04  0.47000000000E+01 0. -1.
         -5    1    4    4    0  502 -0.26794976809E+02 -0.32472871170E+02  0.35711476040E+03  0.35961854824E+03  0.47000000000E+01 0. -1.
          1    1    1    2  503    0  0.32502794100E+02  0.19118509228E+02  0.50202300560E+03  0.50343723261E+03  0.00000000000E+00 0. -1.
         -2    1    1    2    0  501 -0.58757933830E+02 -0.43139438384E+02 -0.14370883526E+04  0.14389358704E+04  0.00000000000E+00 0.  1.
<mgrwt>
<rscale>  0 0.52420947E+02</rscale>
<asrwt>0</asrwt>
<pdfrwt beam="1">  1        2 0.32105929E+00 0.37708739E+02</pdfrwt>
<pdfrwt beam="2">  1       -1 0.25821227E+00 0.72873177E+02</pdfrwt>
<totfact> 0.78807696E-01</totfact>
</mgrwt>
</event>
<event>
13    1  0.2101801E-008  0.3908618E+02  0.7546771E-02  0.1572176E+00
          2   -1    0    0  503    0  0.00000000000E+00  0.00000000000E+00  0.24460505363E+04  0.24460505363E+04  0.00000000000E+00 0. -1.
          2   -1    0    0  502    0 -0.00000000000E+00 -0.00000000000E+00 -0.25943981761E+04  0.25943981761E+04  0.00000000000E+00 0. -1.
         24    2    1    2    0    0 -0.15081583648E+03  0.16730519248E+03 -0.41399241383E+02  0.24327494435E+03  0.82050943922E+02 0.  0.
         25    2    1    2    0    0  0.11245261055E+03 -0.17474753905E+03  0.12638332039E+04  0.12868883224E+04  0.12499958031E+03 0.  0.
         24    2    1    2    0    0  0.39448048334E+02  0.71572377758E+02  0.14833948812E+03  0.18708054685E+03  0.79471840913E+02 0.  0.
        -13    1    3    3    0    0 -0.74636829562E+02  0.12959111942E+03 -0.19424361215E+01  0.14956031432E+03  0.00000000000E+00 0.  1.
         14    1    3    3    0    0 -0.76179006913E+02  0.37714073060E+02 -0.39456805261E+02  0.93714630034E+02  0.00000000000E+00 0. -1.
        -13    1    5    5    0    0  0.54553502282E+02  0.21027548707E+02  0.98280506718E+02  0.11435602484E+03  0.00000000000E+00 0.  1.
         14    1    5    5    0    0 -0.15105453948E+02  0.50544829051E+02  0.50058981404E+02  0.72724522013E+02  0.00000000000E+00 0. -1.
          5    1    4    4  501    0  0.54661496749E+02 -0.99817626731E+02  0.34796601879E+03  0.36613368878E+03  0.47000000000E+01 0.  1.
         -5    1    4    4    0  501  0.57791113803E+02 -0.74929912322E+02  0.91586718509E+03  0.92075463361E+03  0.47000000000E+01 0.  1.
          1    1    1    2  502    0 -0.84453955859E+01 -0.38160388580E+02 -0.24208032873E+04  0.24211187695E+04  0.00000000000E+00 0. -1.
          1    1    1    2  503    0  0.73605731749E+01 -0.25969642608E+02  0.90168219692E+03  0.90208612926E+03  0.00000000000E+00 0. -1.
<mgrwt>
<rscale>  0 0.32481343E+02</rscale>
<asrwt>0</asrwt>
<pdfrwt beam="1">  1        2 0.35971331E+00 0.26992599E+02</pdfrwt>
<pdfrwt beam="2">  1        2 0.38152914E+00 0.39086183E+02</pdfrwt>
<totfact> 0.55625136E+00</totfact>
</mgrwt>
</event>
<event>
13    1  0.2101801E-008  0.1464483E+03  0.7546771E-02  0.1248409E+00
         -1   -1    0    0    0  501 -0.00000000000E+00  0.00000000000E+00  0.69337145380E+03  0.69337145380E+03  0.00000000000E+00 0.  1.
          2   -1    0    0  503    0  0.00000000000E+00 -0.00000000000E+00 -0.21010042984E+04  0.21010042984E+04  0.00000000000E+00 0. -1.
         24    2    1    2    0    0  0.63562462784E+02 -0.40502428819E+02 -0.52903152430E+02  0.12190735917E+03  0.79887591442E+02 0.  0.
         25    2    1    2    0    0 -0.18706991070E+03 -0.82162702010E+02 -0.13724695887E+04  0.13932139049E+04  0.12500540761E+03 0.  0.
         24    2    1    2    0    0  0.42294971600E+02  0.56982609091E+02  0.21105835109E+03  0.23621860014E+03  0.78852502341E+02 0.  0.
        -11    1    5    5    0    0  0.26816642320E+02  0.75738631781E+02  0.14417000679E+03  0.16504685246E+03  0.00000000000E+00 0.  1.
         12    1    5    5    0    0  0.15478329280E+02 -0.18756022690E+02  0.66888344296E+02  0.71171747674E+02  0.00000000000E+00 0. -1.
        -13    1    3    3    0    0  0.48850780836E+02  0.15754729981E+02 -0.19942420213E+02  0.55066418342E+02  0.00000000000E+00 0.  1.
         14    1    3    3    0    0  0.14711681948E+02 -0.56257158800E+02 -0.32960732217E+02  0.66840940824E+02  0.00000000000E+00 0. -1.
          5    1    4    4  502    0 -0.14933971144E+03 -0.11412202312E+03 -0.10091002046E+04  0.10264655370E+04  0.47000000000E+01 0. -1.
         -5    1    4    4    0  502 -0.37730199265E+02  0.31959321114E+02 -0.36336938406E+03  0.36674836797E+03  0.47000000000E+01 0. -1.
          1    1    1    2  503    0 -0.73911567567E+02  0.56794974939E+02 -0.60025253079E+03  0.60744686164E+03  0.00000000000E+00 0. -1.
         -2    1    1    2    0  501  0.15512404389E+03  0.88875467985E+01  0.40693407621E+03  0.43558902633E+03  0.00000000000E+00 0.  1.
<mgrwt>
<rscale>  0 0.11683674E+03</rscale>
<asrwt>0</asrwt>
<pdfrwt beam="2">  1        2 0.30897122E+00 0.93212601E+02</pdfrwt>
<pdfrwt beam="1">  1       -1 0.10196639E+00 0.14644827E+03</pdfrwt>
<totfact> 0.94408686E+00</totfact>
</mgrwt>
</event>
<event>
13    1  0.2101801E-008  0.3953625E+02  0.7546771E-02  0.1617442E+00
          2   -1    0    0  503    0  0.00000000000E+00  0.00000000000E+00  0.32101396954E+04  0.32101396954E+04  0.00000000000E+00 0. -1.
          2   -1    0    0  502    0 -0.00000000000E+00 -0.00000000000E+00 -0.24028937660E+04  0.24028937660E+04  0.00000000000E+00 0. -1.
         24    2    1    2    0    0  0.19151504511E+04 -0.55495618602E+03 -0.32083788976E+03  0.20214925265E+04  0.87849101247E+02 0.  0.
         25    2    1    2    0    0 -0.78831093720E+03  0.25075164312E+03  0.99303352519E+03  0.12984741371E+04  0.12493591240E+03 0.  0.
         24    2    1    2    0    0 -0.11391139912E+04  0.32926791406E+03  0.18509224181E+03  0.12033941054E+04  0.88883017699E+02 0.  0.
        -11    1    5    5    0    0 -0.26056598959E+03  0.11455313380E+03  0.48207000014E+02  0.28868836181E+03  0.00000000000E+00 0.  1.
         12    1    5    5    0    0 -0.87854800161E+03  0.21471478026E+03  0.13688524179E+03  0.91470574362E+03  0.00000000000E+00 0. -1.
        -11    1    3    3    0    0  0.12351331104E+04 -0.34693736666E+03 -0.24760272857E+03  0.13066087586E+04  0.00000000000E+00 0.  1.
         12    1    3    3    0    0  0.68001734064E+03 -0.20801881936E+03 -0.73235161189E+02  0.71488376790E+03  0.00000000000E+00 0. -1.
          5    1    4    4  501    0 -0.78289009866E+03  0.25785367577E+03  0.96749689006E+03  0.12710144558E+04  0.47000000000E+01 0.  1.
         -5    1    4    4    0  501 -0.54208385378E+01 -0.71020326497E+01  0.25536635134E+02  0.27459681211E+02  0.47000000000E+01 0.  1.
          1    1    1    2  502    0 -0.19858749796E+01 -0.39490207207E+02 -0.56897303512E+03  0.57034527688E+03  0.00000000000E+00 0. -1.
          1    1    1    2  503    0  0.14260352320E+02  0.14426836046E+02  0.51893108722E+03  0.51932741554E+03  0.00000000000E+00 0. -1.
<mgrwt>
<rscale>  0 0.28319651E+02</rscale>
<asrwt>0</asrwt>
<pdfrwt beam="1">  1        2 0.47207937E+00 0.20285247E+02</pdfrwt>
<pdfrwt beam="2">  1        2 0.35336673E+00 0.39536252E+02</pdfrwt>
<totfact> 0.30733969E+00</totfact>
</mgrwt>
</event>
<event>
13    1  0.2101801E-008  0.1571723E+03  0.7546771E-02  0.1400912E+00
          2   -1    0    0  503    0  0.00000000000E+00  0.00000000000E+00  0.16556804522E+03  0.16556804522E+03  0.00000000000E+00 0. -1.
          2   -1    0    0  502    0 -0.00000000000E+00 -0.00000000000E+00 -0.34280981666E+04  0.34280981666E+04  0.00000000000E+00 0. -1.
         24    2    1    2    0    0  0.10291586176E+03 -0.10092329114E+03 -0.44373121321E+03  0.47353133864E+03  0.80977489470E+02 0.  0.
         25    2    1    2    0    0 -0.13488970209E+03  0.31344636982E+03 -0.16953420420E+04  0.17338555994E+04  0.12500696595E+03 0.  0.
         24    2    1    2    0    0  0.13596601978E+03 -0.74814886432E+02 -0.88587789336E+02  0.19507068151E+03  0.78235213289E+02 0.  0.
        -13    1    5    5    0    0  0.69398734761E+02  0.53380483406E+01 -0.35188004495E+02  0.77992786890E+02  0.00000000000E+00 0.  1.
         14    1    5    5    0    0  0.66567285019E+02 -0.80152934772E+02 -0.53399784841E+02  0.11707789462E+03  0.00000000000E+00 0. -1.
        -13    1    3    3    0    0  0.34615409936E+02 -0.58438704487E+02 -0.10259707109E+03  0.12304254461E+03  0.00000000000E+00 0.  1.
         14    1    3    3    0    0  0.68300451822E+02 -0.42484586651E+02 -0.34113414212E+03  0.35048879403E+03  0.00000000000E+00 0. -1.
          5    1    4    4  501    0 -0.26390462606E+01  0.13276215680E+03 -0.48005133093E+03  0.49810051713E+03  0.47000000000E+01 0. -1.
         -5    1    4    4    0  501 -0.13225065583E+03  0.18068421302E+03 -0.12152907111E+04  0.12357550822E+04  0.47000000000E+01 0. -1.
          1    1    1    2  502    0 -0.21948295216E+02 -0.42316941567E+01 -0.10342906384E+04  0.10345321452E+04  0.00000000000E+00 0. -1.
          1    1    1    2  503    0 -0.82043884235E+02 -0.13347649809E+03 -0.57843846276E+00  0.15667644710E+03  0.00000000000E+00 0. -1.
<mgrwt>
<rscale>  0 0.59272213E+02</rscale>
<asrwt>0</asrwt>
<pdfrwt beam="1">  1        2 0.24348242E-01 0.15717226E+03</pdfrwt>
<pdfrwt beam="2">  1        2 0.50413207E+00 0.22352514E+02</pdfrwt>
<totfact> 0.75947240E+01</totfact>
</mgrwt>
</event>
<event>
13    1  0.2101801E-008  0.1699543E+03  0.7546771E-02  0.1187769E+00
          2   -1    0    0  502    0  0.00000000000E+00  0.00000000000E+00  0.15674098005E+04  0.15674098005E+04  0.00000000000E+00 0. -1.
          2   -1    0    0  503    0 -0.00000000000E+00 -0.00000000000E+00 -0.21860010726E+04  0.21860010726E+04  0.00000000000E+00 0. -1.
         24    2    1    2    0    0 -0.35911874598E+02  0.67756837281E+02 -0.18919963390E+03  0.22055281206E+03  0.83464901022E+02 0.  0.
         25    2    1    2    0    0 -0.21338301557E+03  0.10579828695E+03  0.67358978068E+01  0.26905495612E+03  0.12497843111E+03 0.  0.
         24    2    1    2    0    0  0.77429003122E+02  0.79170882638E+02 -0.63852865665E+02  0.15069224588E+03  0.79797777746E+02 0.  0.
        -11    1    3    3    0    0  0.10676658723E+02  0.39067692670E+02 -0.25278818775E+02  0.47741955665E+02  0.00000000000E+00 0.  1.
         12    1    3    3    0    0 -0.46588533321E+02  0.28689144611E+02 -0.16392081513E+03  0.17281085639E+03  0.00000000000E+00 0. -1.
        -13    1    5    5    0    0  0.25644637699E+02  0.79195213725E+02 -0.28484927260E+02  0.87982500537E+02  0.00000000000E+00 0.  1.
         14    1    5    5    0    0  0.51784365423E+02 -0.24331087070E-01 -0.35367938404E+02  0.62709745345E+02  0.00000000000E+00 0. -1.
          5    1    4    4  501    0 -0.98737529828E+02  0.92110851518E+02  0.52243166480E+02  0.14486182108E+03  0.47000000000E+01 0. -1.
         -5    1    4    4    0  501 -0.11464548574E+03  0.13687435434E+02 -0.45507268673E+02  0.12419313504E+03  0.47000000000E+01 0. -1.
          1    1    1    2  502    0  0.14356998098E+03  0.12178952338E+02  0.13563982101E+04  0.13640296077E+04  0.00000000000E+00 0. -1.
          1    1    1    2  503    0  0.28295906059E+02 -0.26490495921E+03 -0.17286728805E+04  0.17490812513E+04  0.00000000000E+00 0. -1.
<mgrwt>
<rscale>  0 0.16082418E+03</rscale>
<asrwt>0</asrwt>
<pdfrwt beam="1">  1        2 0.23050144E+00 0.16995434E+03</pdfrwt>
<pdfrwt beam="2">  1        2 0.32147074E+00 0.15218451E+03</pdfrwt>
<totfact> 0.15761972E+01</totfact>
</mgrwt>
</event>
<event>
13    1  0.2101801E-008  0.1037166E+03  0.7546771E-02  0.1468363E+00
          2   -1    0    0  503    0  0.00000000000E+00  0.00000000000E+00  0.17573646712E+04  0.17573646712E+04  0.00000000000E+00 0. -1.
          2   -1    0    0  502    0 -0.00000000000E+00 -0.00000000000E+00 -0.28763970960E+03  0.28763970960E+03  0.00000000000E+00 0. -1.
         24    2    1    2    0    0 -0.13082491907E+01  0.79702428637E+02 -0.15549368001E+03  0.19159619512E+03  0.78591531430E+02 0.  0.
         25    2    1    2    0    0 -0.31515776928E+02 -0.20245675541E+03  0.20232552374E+03  0.31391879810E+03  0.12500964858E+03 0.  0.
         24    2    1    2    0    0  0.47424963561E+02 -0.29997739167E+02  0.17696723783E+03  0.20080591555E+03  0.76528562863E+02 0.  0.
        -13    1    3    3    0    0  0.11878525054E+02 -0.73412009810E+01 -0.60458569759E+02  0.62050231640E+02  0.00000000000E+00 0.  1.
         14    1    3    3    0    0 -0.13186774245E+02  0.87043629618E+02 -0.95035110255E+02  0.12954596348E+03  0.00000000000E+00 0. -1.
        -13    1    5    5    0    0  0.37433250352E+01  0.13449449654E+02  0.58460890006E+00  0.13972900411E+02  0.00000000000E+00 0.  1.
         14    1    5    5    0    0  0.43681638526E+02 -0.43447188821E+02  0.17638262893E+03  0.18683301514E+03  0.00000000000E+00 0. -1.
          5    1    4    4  501    0 -0.66560157887E+02 -0.18882609362E+03  0.15472297480E+03  0.25307476599E+03  0.47000000000E+01 0.  1.
         -5    1    4    4    0  501  0.35044380959E+02 -0.13630661786E+02  0.47602548941E+02  0.60844032108E+02  0.47000000000E+01 0.  1.
          1    1    1    2  502    0  0.12137054193E+02  0.16368064365E+02 -0.40200361063E+02  0.45069841858E+02  0.00000000000E+00 0. -1.
          1    1    1    2  503    0 -0.26737991636E+02  0.13638400157E+03  0.12861262411E+04  0.12936136301E+04  0.00000000000E+00 0. -1.
<mgrwt>
<rscale>  0 0.45972084E+02</rscale>
<asrwt>0</asrwt>
<pdfrwt beam="1">  1        2 0.25843598E+00 0.10371663E+03</pdfrwt>
<pdfrwt beam="2">  1        2 0.42299958E-01 0.20376987E+02</pdfrwt>
<totfact> 0.21514276E+02</totfact>
</mgrwt>
</event>
<event>
13    1  0.2101801E-008  0.1635599E+03  0.7546771E-02  0.1190547E+00
          2   -1    0    0  503    0  0.00000000000E+00  0.00000000000E+00  0.12184723312E+04  0.12184723312E+04  0.00000000000E+00 0. -1.
          2   -1    0    0  502    0 -0.00000000000E+00 -0.00000000000E+00 -0.15855274736E+04  0.15855274736E+04  0.00000000000E+00 0. -1.
         24    2    1    2    0    0 -0.18881981164E+03 -0.25458398206E+01 -0.91014725875E+03  0.93291941712E+03  0.79443084358E+02 0.  0.
         25    2    1    2    0    0 -0.15295484962E+03  0.81648867545E+02  0.29459526571E+02  0.21576480366E+03  0.12499945280E+03 0.  0.
         24    2    1    2    0    0  0.84526609967E+02 -0.84239573107E+02  0.37427122193E+03  0.40070307419E+03  0.79012357457E+02 0.  0.
        -11    1    5    5    0    0  0.46467836735E+02 -0.13132323775E+02  0.64308983008E+02  0.80419917148E+02  0.00000000000E+00 0.  1.
         12    1    5    5    0    0  0.38058773232E+02 -0.71107249332E+02  0.30996223892E+03  0.32028315704E+03  0.00000000000E+00 0. -1.
        -11    1    3    3    0    0 -0.11183676789E+03 -0.71821160307E+01 -0.35041686813E+03  0.36790083842E+03  0.00000000000E+00 0.  1.
         12    1    3    3    0    0 -0.76983043744E+02  0.46362762101E+01 -0.55973039062E+03  0.56501857869E+03  0.00000000000E+00 0. -1.
          5    1    4    4  501    0 -0.12766107619E+03  0.10984503253E+03  0.15611578693E+01  0.16848682073E+03  0.47000000000E+01 0. -1.
         -5    1    4    4    0  501 -0.25293773431E+02 -0.28196164985E+02  0.27898368701E+02  0.47277982936E+02  0.47000000000E+01 0. -1.
          1    1    1    2  502    0  0.12469449282E+03 -0.86678115337E+02 -0.53763879653E+03  0.55867458126E+03  0.00000000000E+00 0. -1.
          1    1    1    2  503    0  0.13255355847E+03  0.91814660720E+02  0.67700016436E+03  0.69593792850E+03  0.00000000000E+00 0. -1.
<mgrwt>
<rscale>  0 0.15837187E+03</rscale>
<asrwt>0</asrwt>
<pdfrwt beam="1">  1        2 0.17918711E+00 0.16355986E+03</pdfrwt>
<pdfrwt beam="2">  1        2 0.23316580E+00 0.15334844E+03</pdfrwt>
<totfact> 0.47318270E+01</totfact>
</mgrwt>
</event>
<event>
13    1  0.2101801E-008  0.2950347E+03  0.7546771E-02  0.1185992E+00
          2   -1    0    0  503    0  0.00000000000E+00  0.00000000000E+00  0.36578954815E+04  0.36578954815E+04  0.00000000000E+00 0. -1.
          2   -1    0    0  502    0 -0.00000000000E+00 -0.00000000000E+00 -0.78266507663E+03  0.78266507663E+03  0.00000000000E+00 0. -1.
         24    2    1    2    0    0 -0.53298568988E+01 -0.94710354103E+02 -0.23028333117E+03  0.26093166512E+03  0.77823278645E+02 0.  0.
         25    2    1    2    0    0  0.34108157095E+03 -0.20506120093E+03  0.54453168183E+03  0.68594983212E+03  0.12500274194E+03 0.  0.
         24    2    1    2    0    0 -0.10922680121E+03  0.36882500897E+03  0.16187320037E+04  0.16659123806E+04  0.83716059457E+02 0.  0.
        -11    1    3    3    0    0 -0.26693231616E+02 -0.73611722592E+02 -0.21146420316E+03  0.22549572842E+03  0.00000000000E+00 0.  1.
         12    1    3    3    0    0  0.21363374717E+02 -0.21098631510E+02 -0.18819128012E+02  0.35435936703E+02  0.00000000000E+00 0. -1.
        -13    1    5    5    0    0 -0.11619162084E+03  0.27542692809E+03  0.11778012433E+04  0.12151445405E+04  0.00000000000E+00 0.  1.
         14    1    5    5    0    0  0.69648196292E+01  0.93398080887E+02  0.44093076034E+03  0.45076784007E+03  0.00000000000E+00 0. -1.
          5    1    4    4  501    0  0.33363833260E+02 -0.17694671383E+02  0.67875373012E+01  0.38657566242E+02  0.47000000000E+01 0.  1.
         -5    1    4    4    0  501  0.30771773769E+03 -0.18736652954E+03  0.53774414453E+03  0.64729226587E+03  0.47000000000E+01 0.  1.
          1    1    1    2  502    0  0.75935997000E+02 -0.47206183443E+02 -0.42141215338E+03  0.43079334072E+03  0.00000000000E+00 0. -1.
          1    1    1    2  503    0 -0.30246090984E+03 -0.21847270502E+02  0.13636622039E+04  0.13969733396E+04  0.00000000000E+00 0. -1.
<mgrwt>
<rscale>  0 0.16241909E+03</rscale>
<asrwt>0</asrwt>
<pdfrwt beam="1">  1        2 0.53792580E+00 0.29503470E+03</pdfrwt>
<pdfrwt beam="2">  1        2 0.11509781E+00 0.89413083E+02</pdfrwt>
<totfact> 0.63133377E+00</totfact>
</mgrwt>
</event>
<event>
13    1  0.2101801E-008  0.1392650E+03  0.7546771E-02  0.1267099E+00
          2   -1    0    0  502    0  0.00000000000E+00  0.00000000000E+00  0.53719250723E+04  0.53719250723E+04  0.00000000000E+00 0. -1.
          2   -1    0    0  503    0 -0.00000000000E+00 -0.00000000000E+00 -0.22337504044E+04  0.22337504044E+04  0.00000000000E+00 0. -1.
         24    2    1    2    0    0 -0.10707187243E+01  0.12036310420E+03 -0.66153713061E+03  0.67701649133E+03  0.78940047230E+02 0.  0.
         25    2    1    2    0    0  0.17866465418E+02  0.88734236237E+02  0.63350047933E+03  0.65202847195E+03  0.12500118260E+03 0.  0.
         24    2    1    2    0    0  0.19398905801E+02  0.16902576984E+02 -0.53988558401E+02  0.10170459832E+03  0.82262058247E+02 0.  0.
        -11    1    5    5    0    0  0.20709894092E+02  0.47026098402E+02 -0.17306134696E+02  0.54220438419E+02  0.00000000000E+00 0.  1.
         12    1    5    5    0    0 -0.13109882914E+01 -0.30123521418E+02 -0.36682423706E+02  0.47484159905E+02  0.00000000000E+00 0. -1.
        -11    1    3    3    0    0  0.26594907698E+02  0.78769052702E+01 -0.14799549495E+03  0.15057224604E+03  0.00000000000E+00 0.  1.
         12    1    3    3    0    0 -0.27665626423E+02  0.11248619893E+03 -0.51354163566E+03  0.52644424529E+03  0.00000000000E+00 0. -1.
          5    1    4    4  501    0  0.49820918920E+02  0.11059884342E+02  0.10460535942E+03  0.11648526183E+03  0.47000000000E+01 0. -1.
         -5    1    4    4    0  501 -0.31954453501E+02  0.77674351894E+02  0.52889511991E+03  0.53554321012E+03  0.47000000000E+01 0. -1.
          1    1    1    2  502    0  0.80829797769E+02 -0.10564633262E+02  0.46870346974E+04  0.46877435213E+04  0.00000000000E+00 0. -1.
          1    1    1    2  503    0 -0.11702445026E+03 -0.21543528416E+03 -0.14668348198E+04  0.14871823937E+04  0.00000000000E+00 0. -1.
<mgrwt>
<rscale>  0 0.10654813E+03</rscale>
<asrwt>0</asrwt>
<pdfrwt beam="1">  1        2 0.78998898E+00 0.81517285E+02</pdfrwt>
<pdfrwt beam="2">  1        2 0.32849271E+00 0.13926500E+03</pdfrwt>
<totfact> 0.51517557E-02</totfact>
</mgrwt>
</event>
<event>
13    1  0.2101801E-008  0.1560116E+03  0.7546771E-02  0.1345797E+00
          2   -1    0    0  502    0  0.00000000000E+00  0.00000000000E+00  0.15297156572E+04  0.15297156572E+04  0.00000000000E+00 0. -1.
          4   -1    0    0  503    0 -0.00000000000E+00 -0.00000000000E+00 -0.65710317371E+03  0.65710317371E+03  0.00000000000E+00 0. -1.
         24    2    1    2    0    0 -0.31424400843E+02  0.21089131364E+03 -0.66280549025E+02  0.23707432110E+03  0.79677370724E+02 0.  0.
         25    2    1    2    0    0  0.17764381828E+03 -0.75312001860E+01  0.30106343271E+03  0.37132516446E+03  0.12501656727E+03 0.  0.
         24    2    1    2    0    0 -0.21187813788E+02 -0.62654371183E+02 -0.28388190235E+01  0.10767995585E+03  0.84925969631E+02 0.  0.
        -11    1    3    3    0    0  0.86210241165E+00  0.18799267452E+03 -0.52986695033E+02  0.19531917147E+03  0.00000000000E+00 0.  1.
         12    1    3    3    0    0 -0.32286503255E+02  0.22898639120E+02 -0.13293853992E+02  0.41755149622E+02  0.00000000000E+00 0. -1.
        -13    1    5    5    0    0 -0.44349293697E+02 -0.16874184913E+02 -0.22779199220E+02  0.52635443240E+02  0.00000000000E+00 0.  1.
         14    1    5    5    0    0  0.23161479910E+02 -0.45780186270E+02  0.19940380197E+02  0.55044512614E+02  0.00000000000E+00 0. -1.
          5    1    4    4  501    0 -0.28957894809E+01  0.31027154680E+02  0.58679988835E+02  0.66607064294E+02  0.47000000000E+01 0.  1.
         -5    1    4    4    0  501  0.18053960776E+03 -0.38558354866E+02  0.24238344388E+03  0.30471810016E+03  0.47000000000E+01 0.  1.
          1    1    1    2  502    0 -0.21326991243E+02 -0.28333086387E+02  0.10413073171E+04  0.10419110005E+04  0.00000000000E+00 0. -1.
          3    1    1    2  503    0 -0.10370461241E+03 -0.11237265589E+03 -0.40063889825E+03  0.42882838901E+03  0.00000000000E+00 0. -1.
<mgrwt>
<rscale>  0 0.74381421E+02</rscale>
<asrwt>0</asrwt>
<pdfrwt beam="1">  1        2 0.22495818E+00 0.35462718E+02</pdfrwt>
<pdfrwt beam="2">  1        4 0.96632820E-01 0.15601161E+03</pdfrwt>
<totfact> 0.81495620E+00</totfact>
</mgrwt>
</event>
<event>
13    1  0.2101801E-008  0.1197428E+03  0.7546771E-02  0.1382002E+00
          2   -1    0    0  502    0  0.00000000000E+00  0.00000000000E+00  0.20797834380E+04  0.20797834380E+04  0.00000000000E+00 0. -1.
          2   -1    0    0  503    0 -0.00000000000E+00 -0.00000000000E+00 -0.16639419771E+04  0.16639419771E+04  0.00000000000E+00 0. -1.
         24    2    1    2    0    0 -0.52646532196E+02  0.12284020213E+02  0.12101583913E+03  0.15552491636E+03  0.81367141916E+02 0.  0.
         25    2    1    2    0    0  0.10974450550E+03  0.64898552403E+02  0.31210146415E+03  0.35956331304E+03  0.12499109397E+03 0.  0.
         24    2    1    2    0    0  0.25080162726E+02  0.75013453125E+01 -0.29615362642E+02  0.89250805031E+02  0.80020945698E+02 0.  0.
        -11    1    3    3    0    0 -0.23487902118E+02  0.40950505909E+02  0.97568412381E+02  0.10838920876E+03  0.00000000000E+00 0.  1.
         12    1    3    3    0    0 -0.29158630078E+02 -0.28666485696E+02  0.23447426749E+02  0.47135707604E+02  0.00000000000E+00 0. -1.
        -11    1    5    5    0    0 -0.85226089553E+01  0.36563825989E+02 -0.34764863273E+01  0.37704564598E+02  0.00000000000E+00 0.  1.
         12    1    5    5    0    0  0.33602771681E+02 -0.29062480677E+02 -0.26138876314E+02  0.51546240432E+02  0.00000000000E+00 0. -1.
          5    1    4    4  501    0  0.14398378802E+02  0.79136312184E+02  0.16504059739E+03  0.18365826419E+03  0.47000000000E+01 0. -1.
         -5    1    4    4    0  501  0.95346126699E+02 -0.14237759781E+02  0.14706086675E+03  0.17590504885E+03  0.47000000000E+01 0. -1.
          1    1    1    2  502    0 -0.26565745479E+02  0.21447777340E+02  0.15733819066E+04  0.15737523216E+04  0.00000000000E+00 0. -1.
          1    1    1    2  503    0 -0.55612390553E+02 -0.10613169527E+03 -0.15610423863E+04  0.15656340590E+04  0.00000000000E+00 0. -1.
<mgrwt>
<rscale>  0 0.63940454E+02</rscale>
<asrwt>0</asrwt>
<pdfrwt beam="1">  1        2 0.30585051E+00 0.34143023E+02</pdfrwt>
<pdfrwt beam="2">  1        2 0.24469735E+00 0.11974282E+03</pdfrwt>
<totfact> 0.19378328E+01</totfact>
</mgrwt>
</event>
<event>
13    1  0.2101801E-008  0.1197172E+03  0.7546771E-02  0.1256476E+00
          2   -1    0    0  503    0  0.00000000000E+00  0.00000000000E+00  0.10538617091E+04  0.10538617091E+04  0.00000000000E+00 0. -1.
         -1   -1    0    0    0  501 -0.00000000000E+00 -0.00000000000E+00 -0.11921783494E+04  0.11921783494E+04  0.00000000000E+00 0.  1.
         24    2    1    2    0    0 -0.40497534627E+02  0.10354905822E+03 -0.27658484953E+03  0.30888492566E+03  0.80921323158E+02 0.  0.
         25    2    1    2    0    0 -0.11567515345E+03 -0.10136649615E+03  0.13865936465E+03  0.24188128542E+03  0.12499691661E+03 0.  0.
         24    2    1    2    0    0  0.62480930290E+02  0.63854524942E+02 -0.48976919798E+03  0.50425656573E+03  0.80122093002E+02 0.  0.
        -11    1    5    5    0    0  0.77809157821E+02  0.33575108200E+02 -0.31361859831E+03  0.32486640045E+03  0.00000000000E+00 0.  1.
         12    1    5    5    0    0 -0.15328227531E+02  0.30279416742E+02 -0.17615059967E+03  0.17939016528E+03  0.00000000000E+00 0. -1.
        -11    1    3    3    0    0 -0.51857140679E+02  0.24501628204E+02 -0.12581286035E+03  0.13826918910E+03  0.00000000000E+00 0.  1.
         12    1    3    3    0    0  0.11359606052E+02  0.79047430018E+02 -0.15077198918E+03  0.17061573656E+03  0.00000000000E+00 0. -1.
          5    1    4    4  502    0 -0.29305553252E+02 -0.20245652377E+02 -0.22051763346E+02  0.42155333687E+02  0.47000000000E+01 0.  1.
         -5    1    4    4    0  502 -0.86369600197E+02 -0.81120843775E+02  0.16071112800E+03  0.19972595173E+03  0.47000000000E+01 0.  1.
          1    1    1    2  503    0  0.33108549603E+01 -0.11993334078E+03  0.82788367540E+03  0.83653233529E+03  0.00000000000E+00 0. -1.
         -2    1    1    2    0  501  0.90380902826E+02  0.53896253769E+02 -0.33850563285E+03  0.35448494642E+03  0.00000000000E+00 0.  1.
<mgrwt>
<rscale>  0 0.11224052E+03</rscale>
<asrwt>0</asrwt>
<pdfrwt beam="1">  1        2 0.15497966E+00 0.11971722E+03</pdfrwt>
<pdfrwt beam="2">  1       -1 0.17532035E+00 0.10523076E+03</pdfrwt>
<totfact> 0.82983830E+00</totfact>
</mgrwt>
</event>
<event>
13    1  0.2101801E-008  0.9057070E+02  0.7546771E-02  0.1399574E+00
          2   -1    0    0  503    0  0.00000000000E+00  0.00000000000E+00  0.80441379178E+03  0.80441379178E+03  0.00000000000E+00 0. -1.
          2   -1    0    0  502    0 -0.00000000000E+00 -0.00000000000E+00 -0.11661553803E+04  0.11661553803E+04  0.00000000000E+00 0. -1.
         24    2    1    2    0    0  0.36095041252E+01 -0.35150524243E+02 -0.49417967982E+03  0.50477709110E+03  0.96632126517E+02 0.  0.
         25    2    1    2    0    0  0.98178804196E+02  0.28588261562E+02 -0.43424458701E+02  0.16722423910E+03  0.12498758433E+03 0.  0.
         24    2    1    2    0    0 -0.17150979112E+02 -0.40739041590E+02 -0.10088587624E+03  0.13074864833E+03  0.70451567921E+02 0.  0.
        -11    1    5    5    0    0 -0.69225361161E+01  0.19758311004E+02 -0.17906155093E+02  0.27548915590E+02  0.00000000000E+00 0.  1.
         12    1    5    5    0    0 -0.10228442996E+02 -0.60497352593E+02 -0.82979721144E+02  0.10319973274E+03  0.00000000000E+00 0. -1.
        -13    1    3    3    0    0  0.16388962967E+01 -0.28462945490E+02 -0.33269598515E+02  0.43814283429E+02  0.00000000000E+00 0.  1.
         14    1    3    3    0    0  0.19706078286E+01 -0.66875787525E+01 -0.46091008131E+03  0.46096280767E+03  0.00000000000E+00 0. -1.
          5    1    4    4  501    0  0.92969578563E+02  0.54589992218E+02 -0.70605919323E+02  0.12896005440E+03  0.47000000000E+01 0.  1.
         -5    1    4    4    0  501  0.52092256325E+01 -0.26001730655E+02  0.27181460622E+02  0.38264184694E+02  0.47000000000E+01 0.  1.
          1    1    1    2  502    0  0.54814488851E+01  0.38817291918E+02 -0.44182816625E+03  0.44356392653E+03  0.00000000000E+00 0. -1.
          1    1    1    2  503    0 -0.90118778094E+02  0.84840123530E+01  0.71857659245E+03  0.72425526705E+03  0.00000000000E+00 0. -1.
<mgrwt>
<rscale>  0 0.59586819E+02</rscale>
<asrwt>0</asrwt>
<pdfrwt beam="1">  1        2 0.11829615E+00 0.90570698E+02</pdfrwt>
<pdfrwt beam="2">  1        2 0.17149344E+00 0.39202403E+02</pdfrwt>
<totfact> 0.15183160E+02</totfact>
</mgrwt>
</event>
<event>
13    1  0.2101801E-008  0.2323830E+03  0.7546771E-02  0.1273022E+00
          2   -1    0    0  503    0  0.00000000000E+00  0.00000000000E+00  0.17874952967E+04  0.17874952967E+04  0.00000000000E+00 0. -1.
         -3   -1    0    0    0  501 -0.00000000000E+00 -0.00000000000E+00 -0.29466039712E+03  0.29466039712E+03  0.00000000000E+00 0.  1.
         24    2    1    2    0    0 -0.73909388870E+01 -0.28773828325E+02  0.52443477489E+02  0.98254708626E+02  0.77595813430E+02 0.  0.
         25    2    1    2    0    0  0.28580370544E+03  0.81457474459E+02  0.10571833790E+03  0.33929567633E+03  0.12500444321E+03 0.  0.
         24    2    1    2    0    0 -0.82674203283E+02  0.14843696935E+02  0.98522633937E+01  0.11758736232E+03  0.81696765280E+02 0.  0.
        -11    1    5    5    0    0 -0.53621386808E+02 -0.58615499680E+01 -0.31901159885E+02  0.62668132997E+02  0.00000000000E+00 0.  1.
         12    1    5    5    0    0 -0.29052816475E+02  0.20705246903E+02  0.41753423279E+02  0.54919229328E+02  0.00000000000E+00 0. -1.
        -11    1    3    3    0    0 -0.22685075406E+02  0.12691710199E+02  0.47020240383E+02  0.53727043095E+02  0.00000000000E+00 0.  1.
         12    1    3    3    0    0  0.15294136519E+02 -0.41465538524E+02  0.54232371055E+01  0.44527665531E+02  0.00000000000E+00 0. -1.
          5    1    4    4  502    0  0.22275187679E+03  0.65024296215E+01  0.58424667168E+02  0.23042615289E+03  0.47000000000E+01 0. -1.
         -5    1    4    4    0  502  0.63051828650E+02  0.74955044837E+02  0.47293670730E+02  0.10886952344E+03  0.47000000000E+01 0. -1.
          1    1    1    2  503    0 -0.22525036745E+03 -0.32068298594E+02  0.14110222016E+04  0.14292479691E+04  0.00000000000E+00 0. -1.
         -4    1    1    2    0  501  0.29511804178E+02 -0.35459044475E+02 -0.86201380838E+02  0.97769977393E+02  0.00000000000E+00 0.  1.
<mgrwt>
<rscale>  0 0.10354042E+03</rscale>
<asrwt>0</asrwt>
<pdfrwt beam="1">  1        2 0.26286695E+00 0.23238304E+03</pdfrwt>
<pdfrwt beam="2">  1       -3 0.43332412E-01 0.46133398E+02</pdfrwt>
<totfact> 0.32320161E+01</totfact>
</mgrwt>
</event>
<event>
13    1  0.2101801E-008  0.1625001E+03  0.7546771E-02  0.1228176E+00
          2   -1    0    0  503    0  0.00000000000E+00  0.00000000000E+00  0.25408126753E+04  0.25408126753E+04  0.00000000000E+00 0. -1.
          2   -1    0    0  502    0 -0.00000000000E+00 -0.00000000000E+00 -0.18499281744E+04  0.18499281744E+04  0.00000000000E+00 0. -1.
         24    2    1    2    0    0 -0.56536219729E+02 -0.11586199826E+02 -0.73769596613E+02  0.12507526798E+03  0.82893215086E+02 0.  0.
         25    2    1    2    0    0  0.90438054503E+01  0.82230348511E+02  0.28076407921E+03  0.31827022144E+03  0.12499538011E+03 0.  0.
         24    2    1    2    0    0  0.23839773621E+03  0.17682889540E+03  0.44379947377E+02  0.31184361165E+03  0.84704896652E+02 0.  0.
        -13    1    3    3    0    0 -0.30951966820E+02  0.18322694615E+02  0.56768745001E+01  0.36413902456E+02  0.00000000000E+00 0.  1.
         14    1    3    3    0    0 -0.25584252908E+02 -0.29908894440E+02 -0.79446471113E+02  0.88661365520E+02  0.00000000000E+00 0. -1.
        -13    1    5    5    0    0  0.17432124852E+03  0.17032175695E+03  0.27500797520E+02  0.24526249701E+03  0.00000000000E+00 0.  1.
         14    1    5    5    0    0  0.64076487696E+02  0.65071384442E+01  0.16879149857E+02  0.66581114636E+02  0.00000000000E+00 0. -1.
          5    1    4    4  501    0  0.10383348622E+02  0.96224999054E+02  0.10890051744E+03  0.14576857367E+03  0.47000000000E+01 0. -1.
         -5    1    4    4    0  501 -0.13395431713E+01 -0.13994650544E+02  0.17186356177E+03  0.17250164777E+03  0.47000000000E+01 0. -1.
          1    1    1    2  502    0 -0.14109732932E+03 -0.15709050919E+03 -0.15897287371E+04  0.16036905381E+04  0.00000000000E+00 0. -1.
          1    1    1    2  503    0 -0.49807992616E+02 -0.90382534889E+02  0.20292388080E+04  0.20318612105E+04  0.00000000000E+00 0. -1.
<mgrwt>
<rscale>  0 0.12951547E+03</rscale>
<asrwt>0</asrwt>
<pdfrwt beam="1">  1        2 0.37364892E+00 0.10322610E+03</pdfrwt>
<pdfrwt beam="2">  1        2 0.27204826E+00 0.16250014E+03</pdfrwt>
<totfact> 0.79989546E+00</totfact>
</mgrwt>
</event>
<event>
13    1  0.2101801E-008  0.9309464E+02  0.7546771E-02  0.1352006E+00
          2   -1    0    0  502    0  0.00000000000E+00  0.00000000000E+00  0.89609450624E+03  0.89609450624E+03  0.00000000000E+00 0. -1.
          2   -1    0    0  503    0 -0.00000000000E+00 -0.00000000000E+00 -0.18877220742E+04  0.18877220742E+04  0.00000000000E+00 0. -1.
         24    2    1    2    0    0 -0.24200641086E+03  0.35031249473E+02 -0.41397245678E+03  0.48732999140E+03  0.79517508826E+02 0.  0.
         25    2    1    2    0    0  0.27878328451E+03 -0.83754288377E+02  0.30829362746E+03  0.44204580383E+03  0.12499852562E+03 0.  0.
         24    2    1    2    0    0  0.13025632026E+02  0.12277742106E+03 -0.44044376389E+03  0.46445403019E+03  0.80516301464E+02 0.  0.
        -11    1    3    3    0    0 -0.11475773204E+03 -0.23043484125E+02 -0.17882312929E+03  0.21372424007E+03  0.00000000000E+00 0.  1.
         12    1    3    3    0    0 -0.12724867882E+03  0.58074733598E+02 -0.23514932748E+03  0.27360575133E+03  0.00000000000E+00 0. -1.
        -11    1    5    5    0    0 -0.81952150386E+01 -0.97553363469E+01 -0.29127611754E+02  0.31792230235E+02  0.00000000000E+00 0.  1.
         12    1    5    5    0    0  0.21220847064E+02  0.13253275741E+03 -0.41131615214E+03  0.43266179996E+03  0.00000000000E+00 0. -1.
          5    1    4    4  501    0  0.15438125770E+03 -0.10243851972E+03  0.14201636093E+03  0.23349081315E+03  0.47000000000E+01 0. -1.
         -5    1    4    4    0  501  0.12440202681E+03  0.18684231342E+02  0.16627726652E+03  0.20855499068E+03  0.47000000000E+01 0. -1.
          1    1    1    2  502    0  0.37687775512E+02 -0.41903781086E+02  0.46817981136E+03  0.47155978524E+03  0.00000000000E+00 0. -1.
          1    1    1    2  503    0 -0.87490281187E+02 -0.32150601070E+02 -0.91368478614E+03  0.91842696981E+03  0.00000000000E+00 0. -1.
<mgrwt>
<rscale>  0 0.72434015E+02</rscale>
<asrwt>0</asrwt>
<pdfrwt beam="1">  1        2 0.13177860E+00 0.56358631E+02</pdfrwt>
<pdfrwt beam="2">  1        2 0.27760619E+00 0.93094641E+02</pdfrwt>
<totfact> 0.56404001E+01</totfact>
</mgrwt>
</event>
<event>
13    1  0.2101801E-008  0.1163412E+03  0.7546771E-02  0.1331890E+00
          2   -1    0    0  502    0  0.00000000000E+00  0.00000000000E+00  0.14777350562E+04  0.14777350562E+04  0.00000000000E+00 0. -1.
          2   -1    0    0  503    0 -0.00000000000E+00 -0.00000000000E+00 -0.82159985929E+03  0.82159985929E+03  0.00000000000E+00 0. -1.
         24    2    1    2    0    0  0.12418632278E+03  0.10556284176E+03 -0.66290591472E+02  0.19311468666E+03  0.79580672023E+02 0.  0.
         25    2    1    2    0    0 -0.25393959810E+03 -0.21037791164E+03  0.34054096498E+03  0.49024282992E+03  0.12500279305E+03 0.  0.
         24    2    1    2    0    0 -0.17158625603E+02  0.37189557222E+02  0.10780287112E+03  0.14069387642E+03  0.80596688771E+02 0.  0.
        -11    1    5    5    0    0 -0.19524011586E+02  0.61332837310E+02  0.89798277299E+02  0.11048363936E+03  0.00000000000E+00 0.  1.
         12    1    5    5    0    0  0.23653859827E+01 -0.24143280088E+02  0.18004593818E+02  0.30210237053E+02  0.00000000000E+00 0. -1.
        -11    1    3    3    0    0  0.87171018466E+02  0.10056484249E+03 -0.21529990377E+02  0.13481696663E+03  0.00000000000E+00 0.  1.
         12    1    3    3    0    0  0.37015304313E+02  0.49979992681E+01 -0.44760601095E+02  0.58297720028E+02  0.00000000000E+00 0. -1.
          5    1    4    4  501    0 -0.60618033690E+02 -0.12947519699E+03  0.13754600280E+03  0.19844234813E+03  0.47000000000E+01 0. -1.
         -5    1    4    4    0  501 -0.19332156441E+03 -0.80902714648E+02  0.20299496217E+03  0.29180048179E+03  0.47000000000E+01 0. -1.
          1    1    1    2  502    0  0.10227268918E+03  0.97394366751E+02  0.86776428102E+03  0.87918155863E+03  0.00000000000E+00 0. -1.
          1    1    1    2  503    0  0.44639211744E+02 -0.29768854092E+02 -0.59368232873E+03  0.59610196388E+03  0.00000000000E+00 0. -1.
<mgrwt>
<rscale>  0 0.79008049E+02</rscale>
<asrwt>0</asrwt>
<pdfrwt beam="1">  1        2 0.21731398E+00 0.11634122E+03</pdfrwt>
<pdfrwt beam="2">  1        2 0.12082351E+00 0.53654859E+02</pdfrwt>
<totfact> 0.97511890E+01</totfact>
</mgrwt>
</event>
<event>
13    1  0.2101801E-008  0.3703460E+03  0.7546771E-02  0.1176012E+00
          2   -1    0    0  502    0  0.00000000000E+00  0.00000000000E+00  0.27187405821E+04  0.27187405821E+04  0.00000000000E+00 0. -1.
          2   -1    0    0  503    0 -0.00000000000E+00 -0.00000000000E+00 -0.34935535135E+04  0.34935535135E+04  0.00000000000E+00 0. -1.
         24    2    1    2    0    0 -0.21030978383E+03 -0.10033487811E+04 -0.41292744601E+03  0.11081328593E+04  0.80686904443E+02 0.  0.
         25    2    1    2    0    0 -0.12261805560E+03  0.64163252912E+03 -0.54109829240E+02  0.66729316504E+03  0.12499921804E+03 0.  0.
         24    2    1    2    0    0  0.43562276980E+01  0.18479317251E+03  0.62782796852E+03  0.65653202200E+03  0.51950404457E+02 0.  0.
        -13    1    3    3    0    0 -0.55389298759E+02 -0.14227688376E+03 -0.46523718829E+02  0.15960934335E+03  0.00000000000E+00 0.  1.
         14    1    3    3    0    0 -0.15492048507E+03 -0.86107189735E+03 -0.36640372718E+03  0.94852351599E+03  0.00000000000E+00 0. -1.
        -13    1    5    5    0    0  0.20005276512E+01  0.13130549387E+03  0.35523101607E+03  0.37872709120E+03  0.00000000000E+00 0.  1.
         14    1    5    5    0    0  0.23557000467E+01  0.53487678644E+02  0.27259695244E+03  0.27780493079E+03  0.00000000000E+00 0. -1.
          5    1    4    4  501    0  0.92134024302E+01  0.34373378647E+02  0.20615451594E+02  0.41394477752E+02  0.47000000000E+01 0. -1.
         -5    1    4    4    0  501 -0.13183145803E+03  0.60725915047E+03 -0.74725280834E+02  0.62589868729E+03  0.47000000000E+01 0. -1.
          1    1    1    2  502    0 -0.26348028727E+02  0.75188175288E+02  0.14067792943E+04  0.14090335209E+04  0.00000000000E+00 0. -1.
          1    1    1    2  503    0  0.35491964046E+03  0.10173490419E+03 -0.23423829189E+04  0.23713025283E+04  0.00000000000E+00 0. -1.
<mgrwt>
<rscale>  0 0.17177270E+03</rscale>
<asrwt>0</asrwt>
<pdfrwt beam="1">  1        2 0.39981479E+00 0.79671076E+02</pdfrwt>
<pdfrwt beam="2">  1        2 0.51375787E+00 0.37034596E+03</pdfrwt>
<totfact> 0.80541822E-01</totfact>
</mgrwt>
</event>
<event>
13    1  0.2101801E-008  0.1009430E+03  0.7546771E-02  0.1368441E+00
          2   -1    0    0  502    0  0.00000000000E+00  0.00000000000E+00  0.25504295216E+04  0.25504295216E+04  0.00000000000E+00 0. -1.
          2   -1    0    0  503    0 -0.00000000000E+00 -0.00000000000E+00 -0.20526913253E+04  0.20526913253E+04  0.00000000000E+00 0. -1.
         24    2    1    2    0    0 -0.42320905424E+01 -0.33230171409E+02 -0.60493250346E+03  0.61138511520E+03  0.82013843121E+02 0.  0.
         25    2    1    2    0    0 -0.12214116252E+02 -0.94430231435E+01  0.70635702101E+03  0.71749842662E+03  0.12500158296E+03 0.  0.
         24    2    1    2    0    0  0.73464696149E+02  0.45405679550E+02 -0.16666605043E+03  0.20404948796E+03  0.79999274087E+02 0.  0.
        -13    1    5    5    0    0  0.25630587770E+02 -0.16706288118E+01 -0.14542292457E+01  0.25726111497E+02  0.00000000000E+00 0.  1.
         14    1    5    5    0    0  0.47834108379E+02  0.47076308362E+02 -0.16521182119E+03  0.17832337647E+03  0.00000000000E+00 0. -1.
        -13    1    3    3    0    0  0.34807199314E+02 -0.38964146102E+01 -0.16044933314E+03  0.16422762154E+03  0.00000000000E+00 0.  1.
         14    1    3    3    0    0 -0.39039289857E+02 -0.29333756798E+02 -0.44448317032E+03  0.44715749366E+03  0.00000000000E+00 0. -1.
          5    1    4    4  501    0 -0.41554855967E+02  0.16478064628E+02  0.62962557437E+03  0.63122799888E+03  0.47000000000E+01 0.  1.
         -5    1    4    4    0  501  0.29340739715E+02 -0.25921087772E+02  0.76731446640E+02  0.86270427736E+02  0.47000000000E+01 0.  1.
          1    1    1    2  502    0 -0.99521687353E+02 -0.18328130989E+02  0.18147649193E+04  0.18175841655E+04  0.00000000000E+00 0. -1.
          1    1    1    2  503    0  0.42503197998E+02  0.15595645991E+02 -0.12517851900E+04  0.12526036516E+04  0.00000000000E+00 0. -1.
<mgrwt>
<rscale>  0 0.67602559E+02</rscale>
<asrwt>0</asrwt>
<pdfrwt beam="1">  1        2 0.37506317E+00 0.10094301E+03</pdfrwt>
<pdfrwt beam="2">  1        2 0.30186637E+00 0.45274121E+02</pdfrwt>
<totfact> 0.72458358E+00</totfact>
</mgrwt>
</event>
<event>
13    1  0.2101801E-008  0.6410752E+02  0.7546771E-02  0.1425125E+00
          2   -1    0    0  502    0  0.00000000000E+00  0.00000000000E+00  0.51716299079E+03  0.51716299079E+03  0.00000000000E+00 0. -1.
          2   -1    0    0  503    0 -0.00000000000E+00 -0.00000000000E+00 -0.12444032277E+04  0.12444032277E+04  0.00000000000E+00 0. -1.
         24    2    1    2    0    0 -0.81836416188E+02  0.95533137638E+01 -0.10763469225E+03  0.16571174156E+03  0.95324128618E+02 0.  0.
         25    2    1    2    0    0 -0.66048253484E+02 -0.12066524768E+03  0.10245205399E+03  0.21223392818E+03  0.12499737244E+03 0.  0.
         24    2    1    2    0    0  0.12525395695E+03  0.78197478546E+02  0.15907782854E+03  0.23099160104E+03  0.79044068950E+02 0.  0.
        -13    1    5    5    0    0  0.10343697157E+03  0.39504922738E+02  0.14866561880E+03  0.18536804531E+03  0.00000000000E+00 0.  1.
         14    1    5    5    0    0  0.21816985378E+02  0.38692555808E+02  0.10412209738E+02  0.45623555731E+02  0.00000000000E+00 0. -1.
        -13    1    3    3    0    0  0.13487644611E+02  0.17269889157E+02 -0.48628512012E+02  0.53337583458E+02  0.00000000000E+00 0.  1.
         14    1    3    3    0    0 -0.95324060798E+02 -0.77165753932E+01 -0.59006180237E+02  0.11237415810E+03  0.00000000000E+00 0. -1.
          5    1    4    4  501    0 -0.53920494273E+02 -0.11769719292E+03  0.12881381428E+03  0.18268863586E+03  0.47000000000E+01 0. -1.
         -5    1    4    4    0  501 -0.12127759210E+02 -0.29680547638E+01 -0.26361760291E+02  0.29545292318E+02  0.47000000000E+01 0. -1.
          1    1    1    2  502    0  0.33807331315E+02 -0.30307734307E+02  0.13090430595E+03  0.13855479683E+03  0.00000000000E+00 0. -1.
          1    1    1    2  503    0 -0.11176618592E+02  0.63222189679E+02 -0.10120397331E+04  0.10140741509E+04  0.00000000000E+00 0. -1.
<mgrwt>
<rscale>  0 0.53951064E+02</rscale>
<asrwt>0</asrwt>
<pdfrwt beam="1">  1        2 0.76053381E-01 0.45403683E+02</pdfrwt>
<pdfrwt beam="2">  1        2 0.18300047E+00 0.64107515E+02</pdfrwt>
<totfact> 0.22304247E+02</totfact>
</mgrwt>
</event>
<event>
13    1  0.2101801E-008  0.9529318E+02  0.7546771E-02  0.1419134E+00
          2   -1    0    0  502    0  0.00000000000E+00  0.00000000000E+00  0.12826604304E+04  0.12826604304E+04  0.00000000000E+00 0. -1.
          2   -1    0    0  503    0 -0.00000000000E+00 -0.00000000000E+00 -0.92065929392E+03  0.92065929392E+03  0.00000000000E+00 0. -1.
         24    2    1    2    0    0  0.34099511579E+02  0.51875680340E+02 -0.11442075482E+03  0.15323543500E+03  0.80840129291E+02 0.  0.
         25    2    1    2    0    0  0.55022636698E+02  0.21934071390E+01  0.14039442278E+03  0.19587856129E+03  0.12500206094E+03 0.  0.
         24    2    1    2    0    0  0.97722863848E+01  0.90340730676E+01 -0.14757944267E+03  0.16859388106E+03  0.80418236572E+02 0.  0.
        -11    1    5    5    0    0 -0.21731414517E+01 -0.33675190091E+02 -0.40642796867E+02  0.52825920802E+02  0.00000000000E+00 0.  1.
         12    1    5    5    0    0  0.11945427836E+02  0.42709263158E+02 -0.10693664580E+03  0.11576796025E+03  0.00000000000E+00 0. -1.
        -11    1    3    3    0    0  0.38161760439E+01  0.55454096075E+02 -0.29336692143E+02  0.62851901140E+02  0.00000000000E+00 0.  1.
         12    1    3    3    0    0  0.30283335535E+02 -0.35784157350E+01 -0.85084062678E+02  0.90383533855E+02  0.00000000000E+00 0. -1.
          5    1    4    4  501    0  0.83588096568E+02 -0.27147478078E+02  0.63145513614E+02  0.10832082599E+03  0.47000000000E+01 0.  1.
         -5    1    4    4    0  501 -0.28565459869E+02  0.29340885217E+02  0.77248909164E+02  0.87557735295E+02  0.47000000000E+01 0.  1.
          1    1    1    2  502    0 -0.93540200176E+02 -0.31573740841E+02  0.10819348676E+04  0.10864298081E+04  0.00000000000E+00 0. -1.
          1    1    1    2  503    0 -0.53542344860E+01 -0.31529419705E+02 -0.59832795649E+03  0.59918203883E+03  0.00000000000E+00 0. -1.
<mgrwt>
<rscale>  0 0.55204646E+02</rscale>
<asrwt>0</asrwt>
<pdfrwt beam="1">  1        2 0.18862653E+00 0.95293177E+02</pdfrwt>
<pdfrwt beam="2">  1        2 0.13539107E+00 0.31980809E+02</pdfrwt>
<totfact> 0.11076043E+02</totfact>
</mgrwt>
</event>
<event>
13    1  0.2101801E-008  0.1292734E+03  0.7546771E-02  0.1238866E+00
         -1   -1    0    0    0  501 -0.00000000000E+00  0.00000000000E+00  0.13507552633E+04  0.13507552633E+04  0.00000000000E+00 0.  1.
          2   -1    0    0  503    0  0.00000000000E+00 -0.00000000000E+00 -0.30127042559E+04  0.30127042559E+04  0.00000000000E+00 0. -1.
         24    2    1    2    0    0 -0.28588387160E+03  0.86145667053E+02  0.13889117862E+03  0.33917181307E+03  0.81216348678E+02 0.  0.
         25    2    1    2    0    0  0.20972518469E+03  0.29420281216E+03 -0.40587268217E+03  0.55758181643E+03  0.12499960043E+03 0.  0.
         24    2    1    2    0    0  0.25838827829E+03 -0.23841596586E+03 -0.18001072906E+03  0.39820820736E+03  0.50588918739E+02 0.  0.
        -11    1    3    3    0    0 -0.58336617272E+02  0.53328926763E+02  0.27316405468E+02  0.83626080574E+02  0.00000000000E+00 0.  1.
         12    1    3    3    0    0 -0.22754725433E+03  0.32816740290E+02  0.11157477315E+03  0.25554573250E+03  0.00000000000E+00 0. -1.
        -13    1    5    5    0    0  0.11352140323E+03 -0.10980030062E+03 -0.10893118995E+03  0.19185728851E+03  0.00000000000E+00 0.  1.
         14    1    5    5    0    0  0.14486687505E+03 -0.12861566523E+03 -0.71079539112E+02  0.20635091885E+03  0.00000000000E+00 0. -1.
          5    1    4    4  502    0  0.10970450053E+03  0.57673864553E+02 -0.11007221881E+03  0.16582923579E+03  0.47000000000E+01 0. -1.
         -5    1    4    4    0  502  0.10002068416E+03  0.23652894760E+03 -0.29580046336E+03  0.39175258064E+03  0.47000000000E+01 0. -1.
          1    1    1    2  503    0 -0.11100536015E+03 -0.34604321754E+02 -0.21356623153E+04  0.21388251855E+04  0.00000000000E+00 0. -1.
         -2    1    1    2    0  501 -0.71224231224E+02 -0.10732819160E+03  0.92070555527E+03  0.92967249682E+03  0.00000000000E+00 0.  1.
<mgrwt>
<rscale>  0 0.12260154E+03</rscale>
<asrwt>0</asrwt>
<pdfrwt beam="2">  1        2 0.44304474E+00 0.11627403E+03</pdfrwt>
<pdfrwt beam="1">  1       -1 0.19864048E+00 0.12927338E+03</pdfrwt>
<totfact> 0.58355336E-01</totfact>
</mgrwt>
</event>
<event>
13    1  0.2101801E-008  0.9344920E+02  0.7546771E-02  0.1380063E+00
          2   -1    0    0  502    0  0.00000000000E+00  0.00000000000E+00  0.21447519934E+04  0.21447519934E+04  0.00000000000E+00 0. -1.
          2   -1    0    0  503    0 -0.00000000000E+00 -0.00000000000E+00 -0.88281130921E+03  0.88281130921E+03  0.00000000000E+00 0. -1.
         24    2    1    2    0    0  0.21651334224E+02  0.86116566124E+01 -0.41792914337E+03  0.42628483628E+03  0.80691089137E+02 0.  0.
         25    2    1    2    0    0 -0.10447713473E+03  0.35815985420E+03  0.70290462625E+03  0.80553938642E+03  0.12499934651E+03 0.  0.
         24    2    1    2    0    0  0.96405836788E+02 -0.25476053665E+03  0.67934348614E+03  0.73624595875E+03  0.79708990797E+02 0.  0.
        -11    1    5    5    0    0 -0.27085228622E+01 -0.74713673715E+02  0.23646366099E+03  0.24800107279E+03  0.00000000000E+00 0.  1.
         12    1    5    5    0    0  0.99114359651E+02 -0.18004686293E+03  0.44287982516E+03  0.48824488596E+03  0.00000000000E+00 0. -1.
        -13    1    3    3    0    0 -0.96188864186E+01  0.36812646702E+02 -0.13575960556E+03  0.14099065371E+03  0.00000000000E+00 0.  1.
         14    1    3    3    0    0  0.31270220643E+02 -0.28200990089E+02 -0.28216953781E+03  0.28529418257E+03  0.00000000000E+00 0. -1.
          5    1    4    4  501    0 -0.12835591495E+03  0.33552710546E+03  0.65773679487E+03  0.74946211427E+03  0.47000000000E+01 0.  1.
         -5    1    4    4    0  501  0.23878780217E+02  0.22632748740E+02  0.45167831387E+02  0.56077272155E+02  0.47000000000E+01 0.  1.
          1    1    1    2  502    0 -0.42775592934E+02 -0.12071057898E+02  0.67069380870E+03  0.67216489555E+03  0.00000000000E+00 0. -1.
          1    1    1    2  503    0  0.29195556650E+02 -0.99939916272E+02 -0.37307209352E+03  0.38732822561E+03  0.00000000000E+00 0. -1.
<mgrwt>
<rscale>  0 0.64447334E+02</rscale>
<asrwt>0</asrwt>
<pdfrwt beam="1">  1        2 0.31540470E+00 0.44446167E+02</pdfrwt>
<pdfrwt beam="2">  1        2 0.12982519E+00 0.93449203E+02</pdfrwt>
<totfact> 0.46188330E+01</totfact>
</mgrwt>
</event>
<event>
13    1  0.2101801E-008  0.9983180E+02  0.7546771E-02  0.1312885E+00
          2   -1    0    0  503    0  0.00000000000E+00  0.00000000000E+00  0.15291138092E+04  0.15291138092E+04  0.00000000000E+00 0. -1.
          2   -1    0    0  502    0 -0.00000000000E+00 -0.00000000000E+00 -0.73231834536E+03  0.73231834536E+03  0.00000000000E+00 0. -1.
         24    2    1    2    0    0  0.35013360791E+02  0.37655440820E+02 -0.52089382598E+02  0.11145800696E+03  0.84057812718E+02 0.  0.
         25    2    1    2    0    0  0.93387854627E+02 -0.52002173213E+02  0.15680260836E+03  0.22723915014E+03  0.12500022382E+03 0.  0.
         24    2    1    2    0    0  0.61325350314E+01 -0.14788745370E+02 -0.13526012899E+03  0.15815104608E+03  0.80374970651E+02 0.  0.
        -13    1    5    5    0    0 -0.33918147649E+02 -0.26451473208E+00 -0.32789187520E+02  0.47176705334E+02  0.00000000000E+00 0.  1.
         14    1    5    5    0    0  0.40050682680E+02 -0.14524230638E+02 -0.10247094147E+03  0.11097434075E+03  0.00000000000E+00 0. -1.
        -13    1    3    3    0    0  0.10837123771E+02 -0.24866258497E+02 -0.30985966570E+02  0.41181357282E+02  0.00000000000E+00 0.  1.
         14    1    3    3    0    0  0.24176237020E+02  0.62521699317E+02 -0.21103416028E+02  0.70276649678E+02  0.00000000000E+00 0. -1.
          5    1    4    4  501    0  0.59792224917E+02 -0.66831122608E+02  0.16631997921E+03  0.18901305403E+03  0.47000000000E+01 0. -1.
         -5    1    4    4    0  501  0.33595629710E+02  0.14828949395E+02 -0.95173708470E+01  0.38226096108E+02  0.47000000000E+01 0. -1.
          1    1    1    2  502    0 -0.12009277907E+03 -0.43496273433E+02 -0.45883260782E+03  0.47627887145E+03  0.00000000000E+00 0. -1.
          1    1    1    2  503    0 -0.14440971377E+02  0.72631751196E+02  0.12861749749E+04  0.12883050800E+04  0.00000000000E+00 0. -1.
<mgrwt>
<rscale>  0 0.85981910E+02</rscale>
<asrwt>0</asrwt>
<pdfrwt beam="1">  1        2 0.22486968E+00 0.74053446E+02</pdfrwt>
<pdfrwt beam="2">  1        2 0.10769387E+00 0.99831799E+02</pdfrwt>
<totfact> 0.10685298E+02</totfact>
</mgrwt>
</event>
<event>
13    1  0.2101801E-008  0.8954700E+02  0.7546771E-02  0.1392714E+00
          2   -1    0    0  503    0  0.00000000000E+00  0.00000000000E+00  0.25687382904E+04  0.25687382904E+04  0.00000000000E+00 0. -1.
          2   -1    0    0  502    0 -0.00000000000E+00 -0.00000000000E+00 -0.29531944570E+04  0.29531944570E+04  0.00000000000E+00 0. -1.
         24    2    1    2    0    0  0.96852438990E+02 -0.32557851155E+02 -0.96180516698E+01  0.12857320108E+03  0.77447740493E+02 0.  0.
         25    2    1    2    0    0 -0.16715140163E+03  0.69199168035E+02  0.11460008831E+04  0.11669097521E+04  0.12502891478E+03 0.  0.
         24    2    1    2    0    0  0.57823579971E+01 -0.31444821898E+02 -0.15275751491E+03  0.17698925785E+03  0.83475304996E+02 0.  0.
        -11    1    3    3    0    0  0.55635008514E+01 -0.33605125853E+02  0.93630270743E+01  0.35325957896E+02  0.00000000000E+00 0.  1.
         12    1    3    3    0    0  0.91288938139E+02  0.10472746972E+01 -0.18981078744E+02  0.93247243182E+02  0.00000000000E+00 0. -1.
        -13    1    5    5    0    0  0.52612326707E+00 -0.17172551811E+02 -0.15944972826E+03  0.16037265722E+03  0.00000000000E+00 0.  1.
         14    1    5    5    0    0  0.52562347300E+01 -0.14272270086E+02  0.66922133499E+01  0.16616600629E+02  0.00000000000E+00 0. -1.
          5    1    4    4  501    0 -0.11497489170E+03  0.60470309499E+02  0.43704761317E+03  0.45596994444E+03  0.47000000000E+01 0. -1.
         -5    1    4    4    0  501 -0.52176509932E+02  0.87288585362E+01  0.70895326992E+03  0.71093980764E+03  0.47000000000E+01 0. -1.
          1    1    1    2  502    0  0.84169408598E+02  0.31782352262E+02 -0.27076966548E+04  0.27091909829E+04  0.00000000000E+00 0. -1.
          1    1    1    2  503    0 -0.19652803951E+02 -0.36978847244E+02  0.13396151717E+04  0.13402695536E+04  0.00000000000E+00 0. -1.
<mgrwt>
<rscale>  0 0.61236780E+02</rscale>
<asrwt>0</asrwt>
<pdfrwt beam="1">  1        2 0.37775563E+00 0.41876818E+02</pdfrwt>
<pdfrwt beam="2">  1        2 0.43429330E+00 0.89546997E+02</pdfrwt>
<totfact> 0.26488205E+00</totfact>
</mgrwt>
</event>
<event>
13    1  0.2101801E-008  0.2197973E+03  0.7546771E-02  0.1187665E+00
          2   -1    0    0  503    0  0.00000000000E+00  0.00000000000E+00  0.85247724546E+03  0.85247724546E+03  0.00000000000E+00 0. -1.
          2   -1    0    0  502    0 -0.00000000000E+00 -0.00000000000E+00 -0.13258882071E+04  0.13258882071E+04  0.00000000000E+00 0. -1.
         24    2    1    2    0    0  0.36873552043E+02  0.18782016963E+02 -0.42740256560E+02  0.10039915608E+03  0.80875447505E+02 0.  0.
         25    2    1    2    0    0  0.23872161414E+03 -0.48028817421E+03 -0.53736946224E+03  0.76945136177E+03  0.12499887935E+03 0.  0.
         24    2    1    2    0    0 -0.10020820688E+03  0.52187654997E+01  0.17640350544E+03  0.21856220636E+03  0.81131504843E+02 0.  0.
        -11    1    5    5    0    0 -0.10374538226E+03 -0.17759749119E+02  0.15170408696E+03  0.18464193194E+03  0.00000000000E+00 0.  1.
         12    1    5    5    0    0  0.35371753790E+01  0.22978514618E+02  0.24699418480E+02  0.33920274424E+02  0.00000000000E+00 0. -1.
        -13    1    3    3    0    0  0.12425974201E+02  0.39707623347E+02  0.59559473512E+01  0.42030625686E+02  0.00000000000E+00 0.  1.
         14    1    3    3    0    0  0.24447577842E+02 -0.20925606384E+02 -0.48696203911E+02  0.58368530393E+02  0.00000000000E+00 0. -1.
          5    1    4    4  501    0  0.82628002745E+02 -0.18541610553E+03 -0.29030383806E+03  0.35426674614E+03  0.47000000000E+01 0. -1.
         -5    1    4    4    0  501  0.15609361139E+03 -0.29487206868E+03 -0.24706562418E+03  0.41518461564E+03  0.47000000000E+01 0. -1.
          1    1    1    2  502    0 -0.85928940775E+02  0.53339379560E+03 -0.44284194800E+03  0.69857119533E+03  0.00000000000E+00 0. -1.
          1    1    1    2  503    0 -0.89458018528E+02 -0.77106403849E+02  0.37313719970E+03  0.39138153303E+03  0.00000000000E+00 0. -1.
<mgrwt>
<rscale>  0 0.16091707E+03</rscale>
<asrwt>0</asrwt>
<pdfrwt beam="1">  1        2 0.12536430E+00 0.11780994E+03</pdfrwt>
<pdfrwt beam="2">  1        2 0.19498356E+00 0.21979729E+03</pdfrwt>
<totfact> 0.10374869E+02</totfact>
</mgrwt>
</event>
<event>
13    1  0.2101801E-008  0.1171089E+03  0.7546771E-02  0.1275128E+00
          2   -1    0    0  502    0  0.00000000000E+00  0.00000000000E+00  0.36179081961E+04  0.36179081961E+04  0.00000000000E+00 0. -1.
          2   -1    0    0  503    0 -0.00000000000E+00 -0.00000000000E+00 -0.14638393298E+04  0.14638393298E+04  0.00000000000E+00 0. -1.
         24    2    1    2    0    0 -0.62121381699E+02 -0.10666558485E+02 -0.30131688586E+02  0.10849570581E+03  0.83009384941E+02 0.  0.
         25    2    1    2    0    0 -0.17227407679E+03  0.40363354588E+02  0.41423428823E+03  0.46746280393E+03  0.12499547826E+03 0.  0.
         24    2    1    2    0    0  0.78507532797E+02  0.11196510924E+03  0.68572201227E+03  0.70411642949E+03  0.82859216543E+02 0.  0.
        -11    1    5    5    0    0  0.79946251478E+02  0.47299709076E+02  0.46128457174E+03  0.47054449495E+03  0.00000000000E+00 0.  1.
         12    1    5    5    0    0 -0.14387186808E+01  0.64665400168E+02  0.22443744053E+03  0.23357193454E+03  0.00000000000E+00 0. -1.
        -13    1    3    3    0    0  0.26971954686E+01 -0.30281226926E+02  0.70934185381E+01  0.31217689762E+02  0.00000000000E+00 0.  1.
         14    1    3    3    0    0 -0.64818577168E+02  0.19614668440E+02 -0.37225107124E+02  0.77278016049E+02  0.00000000000E+00 0. -1.
          5    1    4    4  501    0 -0.14021868973E+03  0.55053801710E+02  0.40283951634E+03  0.43010925118E+03  0.47000000000E+01 0.  1.
         -5    1    4    4    0  501 -0.32055387060E+02 -0.14690447122E+02  0.11394771893E+02  0.37353552745E+02  0.47000000000E+01 0.  1.
          1    1    1    2  502    0 -0.14552870143E+02 -0.88522352746E+02  0.24362645675E+04  0.24379157155E+04  0.00000000000E+00 0. -1.
          1    1    1    2  503    0  0.17044079583E+03 -0.53139552601E+02 -0.13520203131E+04  0.13637568713E+04  0.00000000000E+00 0. -1.
<mgrwt>
<rscale>  0 0.10249836E+03</rscale>
<asrwt>0</asrwt>
<pdfrwt beam="1">  1        2 0.53204532E+00 0.89710607E+02</pdfrwt>
<pdfrwt beam="2">  1        2 0.21527049E+00 0.11710895E+03</pdfrwt>
<totfact> 0.33890875E+00</totfact>
</mgrwt>
</event>
<event>
13    1  0.2101801E-008  0.1728392E+03  0.7546771E-02  0.1308628E+00
          2   -1    0    0  503    0  0.00000000000E+00  0.00000000000E+00  0.18840535653E+04  0.18840535653E+04  0.00000000000E+00 0. -1.
          2   -1    0    0  502    0 -0.00000000000E+00 -0.00000000000E+00 -0.63037224027E+03  0.63037224027E+03  0.00000000000E+00 0. -1.
         24    2    1    2    0    0  0.13436434713E+02  0.11314361772E+03 -0.35229925652E+03  0.38545349616E+03  0.10713363408E+03 0.  0.
         25    2    1    2    0    0  0.93082800982E+02 -0.30979555148E+03  0.12588360765E+03  0.36892602383E+03  0.12498814676E+03 0.  0.
         24    2    1    2    0    0 -0.26145523297E+02  0.94151827011E+02  0.14592951749E+03  0.19259926300E+03  0.79062615165E+02 0.  0.
        -13    1    5    5    0    0  0.36243325128E+01  0.27645798445E+02  0.10580478049E+03  0.10941698923E+03  0.00000000000E+00 0.  1.
         14    1    5    5    0    0 -0.29769855810E+02  0.66506028566E+02  0.40124736997E+02  0.83182273771E+02  0.00000000000E+00 0. -1.
        -13    1    3    3    0    0  0.11377956951E+02  0.16129915781E+02  0.30449532287E+00  0.19741448906E+02  0.00000000000E+00 0.  1.
         14    1    3    3    0    0  0.20584777616E+01  0.97013701936E+02 -0.35260375184E+03  0.36571204725E+03  0.00000000000E+00 0. -1.
          5    1    4    4  501    0 -0.21458177850E+02 -0.13512197523E+03  0.36507895752E+02  0.14168033752E+03  0.47000000000E+01 0. -1.
         -5    1    4    4    0  501  0.11454097883E+03 -0.17467357625E+03  0.89375711901E+02  0.22724568632E+03  0.47000000000E+01 0. -1.
          1    1    1    2  502    0 -0.34806930660E+02 -0.27654489690E+02 -0.10899430391E+03  0.11771173054E+03  0.00000000000E+00 0. -1.
          1    1    1    2  503    0 -0.45566781738E+02  0.13015459644E+03  0.14431617603E+04  0.14497352921E+04  0.00000000000E+00 0. -1.
<mgrwt>
<rscale>  0 0.87656466E+02</rscale>
<asrwt>0</asrwt>
<pdfrwt beam="1">  1        2 0.27706670E+00 0.17283919E+03</pdfrwt>
<pdfrwt beam="2">  1        2 0.92701800E-01 0.44455520E+02</pdfrwt>
<totfact> 0.80512929E+01</totfact>
</mgrwt>
</event>
<event>
13    1  0.2101801E-008  0.1359895E+03  0.7546771E-02  0.1251689E+00
          2   -1    0    0  503    0  0.00000000000E+00  0.00000000000E+00  0.12952462027E+04  0.12952462027E+04  0.00000000000E+00 0. -1.
          2   -1    0    0  502    0 -0.00000000000E+00 -0.00000000000E+00 -0.88967348243E+03  0.88967348243E+03  0.00000000000E+00 0. -1.
         24    2    1    2    0    0 -0.55445134264E+02 -0.13152502490E+02 -0.14299706180E+03  0.17576837638E+03  0.84848165661E+02 0.  0.
         25    2    1    2    0    0  0.24977778668E+03 -0.72327161172E+02 -0.11431773695E+03  0.31034337499E+03  0.12499721779E+03 0.  0.
         24    2    1    2    0    0  0.25809073634E+02  0.44544717218E+02 -0.11843847264E+03  0.15625721422E+03  0.87967636564E+02 0.  0.
        -11    1    3    3    0    0 -0.21495432992E+02  0.35258149995E+02 -0.43138050533E+02  0.59716682631E+02  0.00000000000E+00 0.  1.
         12    1    3    3    0    0 -0.33949701272E+02 -0.48410652486E+02 -0.99859011269E+02  0.11605169375E+03  0.00000000000E+00 0. -1.
        -13    1    5    5    0    0  0.33951890955E+02  0.13205801967E+02 -0.11839997568E+03  0.12387767493E+03  0.00000000000E+00 0.  1.
         14    1    5    5    0    0 -0.81428173212E+01  0.31338915251E+02 -0.38496959438E-01  0.32379539297E+02  0.00000000000E+00 0. -1.
          5    1    4    4  501    0  0.26051276009E+03 -0.79496304875E+02 -0.11677660368E+03  0.29638729025E+03  0.47000000000E+01 0. -1.
         -5    1    4    4    0  501 -0.10734973407E+02  0.71691437026E+01  0.24588667328E+01  0.13956084734E+02  0.47000000000E+01 0. -1.
          1    1    1    2  502    0 -0.96595367811E+02 -0.10321072808E+02 -0.37047977719E+03  0.38300451033E+03  0.00000000000E+00 0. -1.
          1    1    1    2  503    0 -0.12354635824E+03  0.51256019253E+02  0.11518057688E+04  0.11595462092E+04  0.00000000000E+00 0. -1.
<mgrwt>
<rscale>  0 0.11493793E+03</rscale>
<asrwt>0</asrwt>
<pdfrwt beam="1">  1        2 0.19047738E+00 0.13598951E+03</pdfrwt>
<pdfrwt beam="2">  1        2 0.13083434E+00 0.97145199E+02</pdfrwt>
<totfact> 0.10603987E+02</totfact>
</mgrwt>
</event>
<event>
13    1  0.2101801E-008  0.3099289E+03  0.7546771E-02  0.1186326E+00
         -1   -1    0    0    0  501 -0.00000000000E+00  0.00000000000E+00  0.11301173765E+04  0.11301173765E+04  0.00000000000E+00 0.  1.
          2   -1    0    0  503    0  0.00000000000E+00 -0.00000000000E+00 -0.23728345558E+04  0.23728345558E+04  0.00000000000E+00 0. -1.
         24    2    1    2    0    0 -0.32454354862E+02  0.31014963892E+01  0.72411498966E+02  0.11306659843E+03  0.80484321886E+02 0.  0.
         25    2    1    2    0    0 -0.22266291069E+03  0.20268566926E+03 -0.17673283187E+04  0.17971460375E+04  0.12499696621E+03 0.  0.
         24    2    1    2    0    0 -0.50575095453E+02  0.82887705610E+02  0.73941044780E+03  0.75027672034E+03  0.82213957136E+02 0.  0.
        -11    1    5    5    0    0  0.10366272539E+02 -0.95402013403E+01  0.14178663421E+03  0.14248482266E+03  0.00000000000E+00 0.  1.
         12    1    5    5    0    0 -0.60941367991E+02  0.92427906950E+02  0.59762381358E+03  0.60779189767E+03  0.00000000000E+00 0. -1.
        -13    1    3    3    0    0  0.55285180484E+01  0.32822207513E+02  0.49555674423E+02  0.59696119517E+02  0.00000000000E+00 0.  1.
         14    1    3    3    0    0 -0.37982872910E+02 -0.29720711124E+02  0.22855824543E+02  0.53370478917E+02  0.00000000000E+00 0. -1.
          5    1    4    4  502    0 -0.81510626534E+02  0.31343975109E+02 -0.79449722285E+03  0.79929616171E+03  0.47000000000E+01 0. -1.
         -5    1    4    4    0  502 -0.14115228415E+03  0.17134169415E+03 -0.97283109590E+03  0.99784987579E+03  0.47000000000E+01 0. -1.
          1    1    1    2  503    0  0.21899067361E+03 -0.26544733314E+03 -0.50260002063E+03  0.60911902165E+03  0.00000000000E+00 0. -1.
         -2    1    1    2    0  501  0.86701687386E+02 -0.23227538120E+02  0.21538921332E+03  0.23334355431E+03  0.00000000000E+00 0.  1.
<mgrwt>
<rscale>  0 0.16211843E+03</rscale>
<asrwt>0</asrwt>
<pdfrwt beam="2">  1        2 0.34894626E+00 0.30992891E+03</pdfrwt>
<pdfrwt beam="1">  1       -1 0.16619373E+00 0.84801339E+02</pdfrwt>
<totfact> 0.19088398E+00</totfact>
</mgrwt>
</event>
<event>
13    1  0.2101801E-008  0.1120723E+03  0.7546771E-02  0.1318273E+00
          2   -1    0    0  503    0  0.00000000000E+00  0.00000000000E+00  0.22791202070E+04  0.22791202070E+04  0.00000000000E+00 0. -1.
          2   -1    0    0  502    0 -0.00000000000E+00 -0.00000000000E+00 -0.82766113629E+03  0.82766113629E+03  0.00000000000E+00 0. -1.
         24    2    1    2    0    0  0.26218499165E+02 -0.20965157555E+03  0.31318562911E+03  0.38599935493E+03  0.79177464557E+02 0.  0.
         25    2    1    2    0    0  0.19933629442E+02  0.28188788438E+03  0.12996484567E+03  0.33522716497E+03  0.12501304762E+03 0.  0.
         24    2    1    2    0    0  0.27325113638E+02  0.22066082345E+02  0.16987422535E+03  0.19116516396E+03  0.80332394765E+02 0.  0.
        -11    1    5    5    0    0  0.25359213308E+02 -0.11958609482E+02  0.13496786957E+02  0.31116897315E+02  0.00000000000E+00 0.  1.
         12    1    5    5    0    0  0.19659003303E+01  0.34024691827E+02  0.15637743840E+03  0.16004826665E+03  0.00000000000E+00 0. -1.
        -13    1    3    3    0    0  0.51835488831E+02 -0.10237955477E+03  0.17363690379E+03  0.20813040502E+03  0.00000000000E+00 0.  1.
         14    1    3    3    0    0 -0.25616989665E+02 -0.10727202077E+03  0.13954872533E+03  0.17786894991E+03  0.00000000000E+00 0. -1.
          5    1    4    4  501    0 -0.45683191940E+02  0.12828517549E+03  0.90373341586E+02  0.16350373435E+03  0.47000000000E+01 0.  1.
         -5    1    4    4    0  501  0.65616821382E+02  0.15360270889E+03  0.39591504089E+02  0.17172343061E+03  0.47000000000E+01 0.  1.
          1    1    1    2  502    0  0.62337184090E+02  0.79677240034E+01 -0.67174107582E+03  0.67467435263E+03  0.00000000000E+00 0. -1.
          1    1    1    2  503    0 -0.13581442634E+03 -0.10227011518E+03  0.15101754464E+04  0.15197153068E+04  0.00000000000E+00 0. -1.
<mgrwt>
<rscale>  0 0.83923221E+02</rscale>
<asrwt>0</asrwt>
<pdfrwt beam="1">  1        2 0.33516473E+00 0.11207228E+03</pdfrwt>
<pdfrwt beam="2">  1        2 0.12171487E+00 0.62844325E+02</pdfrwt>
<totfact> 0.39192144E+01</totfact>
</mgrwt>
</event>
<event>
13    1  0.2101801E-008  0.1234401E+03  0.7546771E-02  0.1345592E+00
          2   -1    0    0  502    0  0.00000000000E+00  0.00000000000E+00  0.15771301412E+04  0.15771301412E+04  0.00000000000E+00 0. -1.
          4   -1    0    0  503    0 -0.00000000000E+00 -0.00000000000E+00 -0.45432508593E+03  0.45432508593E+03  0.00000000000E+00 0. -1.
         24    2    1    2    0    0  0.55799531175E+02  0.19509914652E+03  0.87136429221E+02  0.23493273624E+03  0.80145920730E+02 0.  0.
         25    2    1    2    0    0  0.14093014793E+03 -0.95658688828E+02 -0.13723353335E+03  0.25193520978E+03  0.12500566351E+03 0.  0.
         24    2    1    2    0    0 -0.27916049327E+02 -0.64874404525E+01  0.17632942041E+03  0.19537813481E+03  0.79114842888E+02 0.  0.
        -13    1    3    3    0    0  0.48787941040E+02  0.60125153214E+02  0.68567096468E+01  0.77732308000E+02  0.00000000000E+00 0.  1.
         14    1    3    3    0    0  0.70115901355E+01  0.13497399330E+03  0.80279719574E+02  0.15720042824E+03  0.00000000000E+00 0. -1.
        -13    1    5    5    0    0 -0.45761375887E+02 -0.27979791235E+02  0.13709954950E+03  0.14721840481E+03  0.00000000000E+00 0.  1.
         14    1    5    5    0    0  0.17845326559E+02  0.21492350783E+02  0.39229870908E+02  0.48159729999E+02  0.00000000000E+00 0. -1.
          5    1    4    4  501    0  0.41228662684E+02 -0.35399740718E+02 -0.12290751854E+03  0.13446669618E+03  0.47000000000E+01 0.  1.
         -5    1    4    4    0  501  0.99701485242E+02 -0.60258948110E+02 -0.14326014818E+02  0.11746851360E+03  0.47000000000E+01 0.  1.
          1    1    1    2  502    0 -0.14414584287E+03 -0.55437065150E+02  0.11648508073E+04  0.11750441249E+04  0.00000000000E+00 0. -1.
          3    1    1    2  503    0 -0.24667786906E+02 -0.37515952087E+02 -0.16827806835E+03  0.17416502134E+03  0.00000000000E+00 0. -1.
<mgrwt>
<rscale>  0 0.74447127E+02</rscale>
<asrwt>0</asrwt>
<pdfrwt beam="1">  1        2 0.23193090E+00 0.12344014E+03</pdfrwt>
<pdfrwt beam="2">  1        4 0.66812513E-01 0.44899291E+02</pdfrwt>
<totfact> 0.14464496E+01</totfact>
</mgrwt>
</event>
<event>
13    1  0.2101801E-008  0.6917174E+02  0.7546771E-02  0.1364192E+00
          2   -1    0    0  503    0  0.00000000000E+00  0.00000000000E+00  0.47846492964E+03  0.47846492964E+03  0.00000000000E+00 0. -1.
         -3   -1    0    0    0  501 -0.00000000000E+00 -0.00000000000E+00 -0.94999454901E+03  0.94999454901E+03  0.00000000000E+00 0.  1.
         24    2    1    2    0    0 -0.70615697468E+02  0.90457050455E+02 -0.18436945625E+02  0.14068991199E+03  0.79275946325E+02 0.  0.
         25    2    1    2    0    0  0.18826414173E+03 -0.10961431109E+03 -0.25319445598E+03  0.35663824658E+03  0.12499888850E+03 0.  0.
         24    2    1    2    0    0 -0.96162890192E+02  0.67401681123E+01 -0.73609778012E+02  0.14920519669E+03  0.86896835294E+02 0.  0.
        -11    1    3    3    0    0  0.21128548824E+01  0.40023899151E+02 -0.31826180492E+02  0.51178925581E+02  0.00000000000E+00 0.  1.
         12    1    3    3    0    0 -0.72728552351E+02  0.50433151305E+02  0.13389234866E+02  0.89510986409E+02  0.00000000000E+00 0. -1.
        -13    1    5    5    0    0 -0.17926843890E+02 -0.26687737034E+02 -0.52476091996E+02  0.61541427275E+02  0.00000000000E+00 0.  1.
         14    1    5    5    0    0 -0.78236046302E+02  0.33427905146E+02 -0.21133686016E+02  0.87663769415E+02  0.00000000000E+00 0. -1.
          5    1    4    4  502    0  0.10319815280E+02 -0.44137373888E+02 -0.73909617292E+01  0.46166250405E+02  0.47000000000E+01 0. -1.
         -5    1    4    4    0  502  0.17794432645E+03 -0.65476937200E+02 -0.24580349425E+03  0.31047199617E+03  0.47000000000E+01 0. -1.
          1    1    1    2  503    0 -0.40277345748E+02 -0.55342306465E+02  0.32147194788E+03  0.32867803203E+03  0.00000000000E+00 0. -1.
         -4    1    1    2    0  501  0.18791791676E+02  0.67759398986E+02 -0.44776038764E+03  0.45324809137E+03  0.00000000000E+00 0.  1.
<mgrwt>
<rscale>  0 0.68808574E+02</rscale>
<asrwt>0</asrwt>
<pdfrwt beam="1">  1        2 0.70362490E-01 0.68447319E+02</pdfrwt>
<pdfrwt beam="2">  1       -3 0.13970508E+00 0.69171736E+02</pdfrwt>
<totfact> 0.17709634E+01</totfact>
</mgrwt>
</event>
<event>
13    1  0.2101801E-008  0.1273876E+03  0.7546771E-02  0.1407575E+00
          2   -1    0    0  502    0  0.00000000000E+00  0.00000000000E+00  0.13650740471E+04  0.13650740471E+04  0.00000000000E+00 0. -1.
          2   -1    0    0  503    0 -0.00000000000E+00 -0.00000000000E+00 -0.20743599616E+04  0.20743599616E+04  0.00000000000E+00 0. -1.
         24    2    1    2    0    0  0.40363407192E+03 -0.19117213858E+03  0.92077704935E+02  0.46292117484E+03  0.79689772181E+02 0.  0.
         25    2    1    2    0    0 -0.17849238099E+03  0.74745825687E+01  0.47757740445E+03  0.52499576384E+03  0.12499990141E+03 0.  0.
         24    2    1    2    0    0 -0.32749746448E+03  0.19609612456E+03 -0.28804972933E+03  0.48937315837E+03  0.10394788245E+03 0.  0.
        -11    1    3    3    0    0  0.22035489130E+03 -0.68570217996E+02  0.23359509914E+02  0.23195650373E+03  0.00000000000E+00 0.  1.
         12    1    3    3    0    0  0.18327918061E+03 -0.12260192058E+03  0.68718195020E+02  0.23096467112E+03  0.00000000000E+00 0. -1.
        -13    1    5    5    0    0 -0.12524557488E+03  0.83975905625E+02 -0.53520179935E+02  0.16000880105E+03  0.00000000000E+00 0.  1.
         14    1    5    5    0    0 -0.20225188960E+03  0.11212021894E+03 -0.23452954939E+03  0.32936435733E+03  0.00000000000E+00 0. -1.
          5    1    4    4  501    0 -0.18178220775E+03  0.20474953339E+02  0.33507850791E+03  0.38179011411E+03  0.47000000000E+01 0. -1.
         -5    1    4    4    0  501  0.32898267552E+01 -0.13000370770E+02  0.14249889654E+03  0.14320564973E+03  0.47000000000E+01 0. -1.
          1    1    1    2  502    0  0.12761262344E+03 -0.55455875486E+01  0.47710834045E+03  0.49391102815E+03  0.00000000000E+00 0. -1.
          1    1    1    2  503    0 -0.25256849891E+02 -0.68529810031E+01 -0.14679996350E+04  0.14682328835E+04  0.00000000000E+00 0. -1.
<mgrwt>
<rscale>  0 0.57738543E+02</rscale>
<asrwt>0</asrwt>
<pdfrwt beam="1">  1        2 0.20074619E+00 0.12738755E+03</pdfrwt>
<pdfrwt beam="2">  1        2 0.30505293E+00 0.26170056E+02</pdfrwt>
<totfact> 0.28293668E+01</totfact>
</mgrwt>
</event>
<event>
13    1  0.2101801E-008  0.9326242E+02  0.7546771E-02  0.1378391E+00
         -1   -1    0    0    0  501 -0.00000000000E+00  0.00000000000E+00  0.13742142580E+04  0.13742142580E+04  0.00000000000E+00 0.  1.
          2   -1    0    0  503    0  0.00000000000E+00 -0.00000000000E+00 -0.24295210573E+04  0.24295210573E+04  0.00000000000E+00 0. -1.
         24    2    1    2    0    0  0.22802490934E+02  0.11547586004E+02  0.31187242570E+03  0.32318352613E+03  0.80807681036E+02 0.  0.
         25    2    1    2    0    0 -0.60109355717E+02 -0.16357781966E+03 -0.17440389674E+04  0.17571757189E+04  0.12499499716E+03 0.  0.
         24    2    1    2    0    0  0.59974273081E+02  0.68119908976E+02  0.31101323835E+03  0.33292934246E+03  0.76651661526E+02 0.  0.
        -11    1    3    3    0    0  0.40193033524E+01  0.45284715174E+02  0.18876046342E+03  0.19415811283E+03  0.00000000000E+00 0.  1.
         12    1    3    3    0    0  0.18783187581E+02 -0.33737129170E+02  0.12311196227E+03  0.12902541329E+03  0.00000000000E+00 0. -1.
        -13    1    5    5    0    0  0.42538527741E+02  0.82825122368E+02  0.27465892827E+03  0.29001216202E+03  0.00000000000E+00 0.  1.
         14    1    5    5    0    0  0.17435745340E+02 -0.14705213392E+02  0.36354310078E+02  0.42917180449E+02  0.00000000000E+00 0. -1.
          5    1    4    4  502    0 -0.21398197640E+01 -0.13017312014E+03 -0.77982399489E+03  0.79063087028E+03  0.47000000000E+01 0. -1.
         -5    1    4    4    0  502 -0.57969535953E+02 -0.33404699521E+02 -0.96421497255E+03  0.96654484859E+03  0.47000000000E+01 0. -1.
          1    1    1    2  503    0  0.45023784834E+02  0.33375966016E+01 -0.65772008469E+03  0.65926776848E+03  0.00000000000E+00 0. -1.
         -2    1    1    2    0  501 -0.67691193131E+02  0.80572728075E+02  0.72356658877E+03  0.73117895930E+03  0.00000000000E+00 0.  1.
<mgrwt>
<rscale>  0 0.64888739E+02</rscale>
<asrwt>0</asrwt>
<pdfrwt beam="2">  1        2 0.35728250E+00 0.45147323E+02</pdfrwt>
<pdfrwt beam="1">  1       -1 0.20209033E+00 0.93262417E+02</pdfrwt>
<totfact> 0.12881861E+00</totfact>
</mgrwt>
</event>
<event>
13    1  0.2101801E-008  0.1524919E+03  0.7546771E-02  0.1309798E+00
          2   -1    0    0  503    0  0.00000000000E+00  0.00000000000E+00  0.30600024378E+04  0.30600024378E+04  0.00000000000E+00 0. -1.
         -3   -1    0    0    0  501 -0.00000000000E+00 -0.00000000000E+00 -0.94809509666E+03  0.94809509666E+03  0.00000000000E+00 0.  1.
         24    2    1    2    0    0  0.10468335719E+03 -0.29769616027E+02 -0.35414146432E+02  0.14052043658E+03  0.81529111484E+02 0.  0.
         25    2    1    2    0    0  0.23007161041E+01 -0.10103983640E+03  0.71399381549E+03  0.73186599043E+03  0.12500527011E+03 0.  0.
         24    2    1    2    0    0  0.29309334357E+02  0.41056596987E+02  0.12476414421E+03  0.15451356784E+03  0.75918836472E+02 0.  0.
        -11    1    5    5    0    0 -0.13074652987E+02 -0.15431143866E+02  0.33262026959E+02  0.38928513832E+02  0.00000000000E+00 0.  1.
         12    1    5    5    0    0  0.42383987344E+02  0.56487740853E+02  0.91502117248E+02  0.11558505401E+03  0.00000000000E+00 0. -1.
        -13    1    3    3    0    0  0.10541186157E+03 -0.10486684016E+02 -0.69867755067E+01  0.10616235743E+03  0.00000000000E+00 0.  1.
         14    1    3    3    0    0 -0.72850438786E+00 -0.19282932010E+02 -0.28427370925E+02  0.34358079156E+02  0.00000000000E+00 0. -1.
          5    1    4    4  502    0  0.37805495877E+00 -0.13053828157E+03  0.56631289563E+03  0.58118221896E+03  0.47000000000E+01 0.  1.
         -5    1    4    4    0  502  0.19226611454E+01  0.29498445167E+02  0.14768091986E+03  0.15068377147E+03  0.47000000000E+01 0.  1.
          1    1    1    2  503    0  0.16597245972E+02  0.47010625780E+02  0.21370534337E+04  0.21376348720E+04  0.00000000000E+00 0. -1.
         -4    1    1    2    0  501 -0.15289065362E+03  0.42742229661E+02 -0.82848990582E+03  0.84356266762E+03  0.00000000000E+00 0.  1.
<mgrwt>
<rscale>  0 0.87191751E+02</rscale>
<asrwt>0</asrwt>
<pdfrwt beam="1">  1        2 0.45000036E+00 0.49854463E+02</pdfrwt>
<pdfrwt beam="2">  1       -3 0.13942575E+00 0.15249189E+03</pdfrwt>
<totfact> 0.76690445E-01</totfact>
</mgrwt>
</event>
<event>
13    1  0.2101801E-008  0.2076220E+03  0.7546771E-02  0.1196269E+00
          2   -1    0    0  503    0  0.00000000000E+00  0.00000000000E+00  0.38921375639E+04  0.38921375639E+04  0.00000000000E+00 0. -1.
         -1   -1    0    0    0  501 -0.00000000000E+00 -0.00000000000E+00 -0.11725310419E+04  0.11725310419E+04  0.00000000000E+00 0.  1.
         24    2    1    2    0    0 -0.11139994392E+03 -0.19516788673E+02 -0.28074555861E+02  0.14196572563E+03  0.81087816736E+02 0.  0.
         25    2    1    2    0    0 -0.32235701535E+03 -0.29964308410E+03  0.57911115382E+03  0.73803438220E+03  0.12499999052E+03 0.  0.
         24    2    1    2    0    0  0.54100367673E+02  0.28804781934E+02  0.21634014891E+02  0.10321610747E+03  0.80180851809E+02 0.  0.
        -13    1    3    3    0    0 -0.10306249629E+03 -0.39443850997E+02 -0.39894262352E+02  0.11734243773E+03  0.00000000000E+00 0.  1.
         14    1    3    3    0    0 -0.83374476270E+01  0.19927062324E+02  0.11819706491E+02  0.24623287907E+02  0.00000000000E+00 0. -1.
        -13    1    5    5    0    0 -0.17136918141E+02  0.20108649241E+02  0.16753240201E+02  0.31284225976E+02  0.00000000000E+00 0.  1.
         14    1    5    5    0    0  0.71237285815E+02  0.86961326930E+01  0.48807746898E+01  0.71931881496E+02  0.00000000000E+00 0. -1.
          5    1    4    4  502    0 -0.23104946931E+03 -0.27738411970E+03  0.48817169319E+03  0.60717336829E+03  0.47000000000E+01 0. -1.
         -5    1    4    4    0  502 -0.91307546047E+02 -0.22258964401E+02  0.90939460635E+02  0.13086101391E+03  0.47000000000E+01 0. -1.
          1    1    1    2  503    0  0.10929037259E+03  0.30219962294E+02  0.30767271304E+04  0.30788159196E+04  0.00000000000E+00 0. -1.
         -2    1    1    2    0  501  0.27036621901E+03  0.26013512855E+03 -0.92979122133E+03  0.10026364709E+04  0.00000000000E+00 0.  1.
<mgrwt>
<rscale>  0 0.15347322E+03</rscale>
<asrwt>0</asrwt>
<pdfrwt beam="1">  1        2 0.57237317E+00 0.11344670E+03</pdfrwt>
<pdfrwt beam="2">  1       -1 0.17243104E+00 0.20762199E+03</pdfrwt>
<totfact> 0.25866666E-01</totfact>
</mgrwt>
</event>
<event>
13    1  0.2101801E-008  0.1268917E+03  0.7546771E-02  0.1240938E+00
          2   -1    0    0  502    0  0.00000000000E+00  0.00000000000E+00  0.15364555084E+04  0.15364555084E+04  0.00000000000E+00 0. -1.
          2   -1    0    0  503    0 -0.00000000000E+00 -0.00000000000E+00 -0.14116799874E+04  0.14116799874E+04  0.00000000000E+00 0. -1.
         24    2    1    2    0    0 -0.20813345212E+02 -0.71922181078E+02 -0.18885250312E+03  0.21690855595E+03  0.76013539832E+02 0.  0.
         25    2    1    2    0    0 -0.14321384388E+03 -0.75844298387E+02  0.43719357395E+03  0.48272763329E+03  0.12500073668E+03 0.  0.
         24    2    1    2    0    0 -0.43790938126E+02 -0.29719231887E+02 -0.64928297124E+02  0.12160521009E+03  0.88154774952E+02 0.  0.
        -11    1    5    5    0    0 -0.58466017178E+01 -0.52363234993E+02 -0.14687751627E+02  0.54697542709E+02  0.00000000000E+00 0.  1.
         12    1    5    5    0    0 -0.37944336408E+02  0.22644003106E+02 -0.50240545497E+02  0.66907667378E+02  0.00000000000E+00 0. -1.
        -13    1    3    3    0    0  0.12871605949E+02  0.43337908334E+01 -0.40489949465E+01  0.14172309013E+02  0.00000000000E+00 0.  1.
         14    1    3    3    0    0 -0.33684951161E+02 -0.76255971912E+02 -0.18480350818E+03  0.20273624693E+03  0.00000000000E+00 0. -1.
          5    1    4    4  501    0 -0.14740947780E+03 -0.21281761322E+02  0.30066841417E+03  0.33556825355E+03  0.47000000000E+01 0.  1.
         -5    1    4    4    0  501  0.41956339223E+01 -0.54562537065E+02  0.13652515978E+03  0.14715937975E+03  0.47000000000E+01 0.  1.
          1    1    1    2  502    0  0.12791276922E+03 -0.13622445742E+00  0.10214290610E+04  0.10294071215E+04  0.00000000000E+00 0. -1.
          1    1    1    2  503    0  0.79905357996E+02  0.17762193581E+03 -0.10800663137E+04  0.10974869750E+04  0.00000000000E+00 0. -1.
<mgrwt>
<rscale>  0 0.12131815E+03</rscale>
<asrwt>0</asrwt>
<pdfrwt beam="1">  1        2 0.22594934E+00 0.11598938E+03</pdfrwt>
<pdfrwt beam="2">  1        2 0.20760000E+00 0.12689175E+03</pdfrwt>
<totfact> 0.41218684E+01</totfact>
</mgrwt>
</event>
<event>
13    1  0.2101801E-008  0.2408297E+03  0.7546771E-02  0.1274998E+00
          2   -1    0    0  503    0  0.00000000000E+00  0.00000000000E+00  0.22448894303E+04  0.22448894303E+04  0.00000000000E+00 0. -1.
         -1   -1    0    0    0  501 -0.00000000000E+00 -0.00000000000E+00 -0.11308693760E+04  0.11308693760E+04  0.00000000000E+00 0.  1.
         24    2    1    2    0    0  0.57697925668E+02  0.10997905911E+03 -0.70838847071E+00  0.14690454042E+03  0.78460168961E+02 0.  0.
         25    2    1    2    0    0 -0.26454012766E+01 -0.28932388031E+03  0.10035653754E+04  0.10518958286E+04  0.12500426270E+03 0.  0.
         24    2    1    2    0    0 -0.18120219205E+02 -0.32108585709E+02  0.49269052476E+02  0.10072225253E+03  0.79738503887E+02 0.  0.
        -11    1    5    5    0    0 -0.36628159321E+02 -0.31271258174E+02  0.61803962790E+02  0.78353324496E+02  0.00000000000E+00 0.  1.
         12    1    5    5    0    0  0.18507940115E+02 -0.83732753490E+00 -0.12534910314E+02  0.22368928032E+02  0.00000000000E+00 0. -1.
        -13    1    3    3    0    0  0.10532887625E+02 -0.11253563818E+02 -0.64146689642E+01  0.16695280718E+02  0.00000000000E+00 0.  1.
         14    1    3    3    0    0  0.47165038043E+02  0.12123262293E+03  0.57062804935E+01  0.13020925970E+03  0.00000000000E+00 0. -1.
          5    1    4    4  502    0  0.11040101401E+02 -0.21198324720E+03  0.88118534986E+03  0.90640415474E+03  0.47000000000E+01 0. -1.
         -5    1    4    4    0  502 -0.13685502677E+02 -0.77340633115E+02  0.12238002551E+03  0.14549167385E+03  0.47000000000E+01 0. -1.
          1    1    1    2  503    0  0.40614179596E+02 -0.16071480790E+02  0.10542640421E+04  0.10551684579E+04  0.00000000000E+00 0. -1.
         -2    1    1    2    0  501 -0.77546484783E+02  0.22752488770E+03 -0.99237002718E+03  0.10210677268E+04  0.00000000000E+00 0.  1.
<mgrwt>
<rscale>  0 0.10256247E+03</rscale>
<asrwt>0</asrwt>
<pdfrwt beam="1">  1        2 0.33013080E+00 0.43678417E+02</pdfrwt>
<pdfrwt beam="2">  1       -1 0.16630432E+00 0.24082969E+03</pdfrwt>
<totfact> 0.25758910E+00</totfact>
</mgrwt>
</event>
<event>
13    1  0.2101801E-008  0.3827411E+02  0.7546771E-02  0.1525250E+00
         -1   -1    0    0    0  501 -0.00000000000E+00  0.00000000000E+00  0.32135360179E+03  0.32135360179E+03  0.00000000000E+00 0.  1.
          2   -1    0    0  503    0  0.00000000000E+00 -0.00000000000E+00 -0.25273390179E+04  0.25273390179E+04  0.00000000000E+00 0. -1.
         24    2    1    2    0    0 -0.33384227362E+02 -0.16352138535E+03 -0.18159785516E+02  0.18627206386E+03  0.80707830240E+02 0.  0.
         25    2    1    2    0    0  0.26987122494E+02  0.15877962776E+03 -0.61118638176E+03  0.64429202330E+03  0.12499657223E+03 0.  0.
         24    2    1    2    0    0 -0.17268025303E+01  0.28782230752E+02  0.45758514605E+02  0.98047671348E+02  0.81780838488E+02 0.  0.
        -13    1    3    3    0    0 -0.22452227670E+02 -0.10133221951E+01 -0.33746858815E+01  0.22727029151E+02  0.00000000000E+00 0.  1.
         14    1    3    3    0    0 -0.10931999692E+02 -0.16250806315E+03 -0.14785099635E+02  0.16354503471E+03  0.00000000000E+00 0. -1.
        -13    1    5    5    0    0  0.24027084971E+02  0.51660777799E+01  0.56398894019E+02  0.61520926671E+02  0.00000000000E+00 0.  1.
         14    1    5    5    0    0 -0.25753887502E+02  0.23616152972E+02 -0.10640379414E+02  0.36526744678E+02  0.00000000000E+00 0. -1.
          5    1    4    4  502    0  0.35011865950E+02  0.71821562153E+02 -0.48000133408E+03  0.48662874788E+03  0.47000000000E+01 0.  1.
         -5    1    4    4    0  502 -0.80247434557E+01  0.86958065602E+02 -0.13118504768E+03  0.15766327542E+03  0.47000000000E+01 0.  1.
          1    1    1    2  503    0 -0.29150569348E+02 -0.24855752822E+02 -0.17686938587E+04  0.17691086824E+04  0.00000000000E+00 0. -1.
         -2    1    1    2    0  501  0.37274476746E+02  0.81527966024E+00  0.14629609526E+03  0.15097217885E+03  0.00000000000E+00 0.  1.
<mgrwt>
<rscale>  0 0.37775505E+02</rscale>
<asrwt>0</asrwt>
<pdfrwt beam="2">  1        2 0.37166750E+00 0.38274114E+02</pdfrwt>
<pdfrwt beam="1">  1       -1 0.47257883E-01 0.37283392E+02</pdfrwt>
<totfact> 0.30528231E+01</totfact>
</mgrwt>
</event>
<event>
13    1  0.2101801E-008  0.8080874E+02  0.7546771E-02  0.1353274E+00
          2   -1    0    0  502    0  0.00000000000E+00  0.00000000000E+00  0.27527610124E+04  0.27527610124E+04  0.00000000000E+00 0. -1.
          2   -1    0    0  503    0 -0.00000000000E+00 -0.00000000000E+00 -0.31218580994E+04  0.31218580994E+04  0.00000000000E+00 0. -1.
         24    2    1    2    0    0  0.10390454547E+04  0.39254217421E+03 -0.29890500302E+03  0.11530446226E+04  0.80392073235E+02 0.  0.
         25    2    1    2    0    0  0.60220390543E+02 -0.29321634585E+02  0.16113277589E+03  0.21467556817E+03  0.12504229049E+03 0.  0.
         24    2    1    2    0    0 -0.10693520163E+04 -0.35764789001E+03 -0.74094900119E+03  0.13508812547E+04  0.66700780048E+02 0.  0.
        -11    1    5    5    0    0 -0.38114916649E+03 -0.16126513683E+03 -0.27435215302E+03  0.49653825164E+03  0.00000000000E+00 0.  1.
         12    1    5    5    0    0 -0.68820284978E+03 -0.19638275317E+03 -0.46659684817E+03  0.85434300308E+03  0.00000000000E+00 0. -1.
        -13    1    3    3    0    0  0.36492089948E+03  0.14677365699E+03 -0.67183294277E+02  0.39902802445E+03  0.00000000000E+00 0.  1.
         14    1    3    3    0    0  0.67412455522E+03  0.24576851721E+03 -0.23172170874E+03  0.75401659816E+03  0.00000000000E+00 0. -1.
          5    1    4    4  501    0 -0.33131397163E+02  0.15540333798E+02  0.30297918930E+02  0.47741442626E+02  0.47000000000E+01 0.  1.
         -5    1    4    4    0  501  0.93351787706E+02 -0.44861968382E+02  0.13083485696E+03  0.16693412554E+03  0.47000000000E+01 0.  1.
          1    1    1    2  502    0 -0.42991740113E+02 -0.68458647489E+02  0.18311491388E+04  0.18329326351E+04  0.00000000000E+00 0. -1.
          1    1    1    2  503    0  0.13077911132E+02  0.62885997873E+02 -0.13215249975E+04  0.13230850311E+04  0.00000000000E+00 0. -1.
<mgrwt>
<rscale>  0 0.72044873E+02</rscale>
<asrwt>0</asrwt>
<pdfrwt beam="1">  1        2 0.40481779E+00 0.80808745E+02</pdfrwt>
<pdfrwt beam="2">  1        2 0.45909678E+00 0.64231460E+02</pdfrwt>
<totfact> 0.16746965E+00</totfact>
</mgrwt>
</event>
<event>
13    1  0.2101801E-008  0.2480684E+03  0.7546771E-02  0.1206732E+00
          2   -1    0    0  502    0  0.00000000000E+00  0.00000000000E+00  0.16032907611E+04  0.16032907611E+04  0.00000000000E+00 0. -1.
          2   -1    0    0  503    0 -0.00000000000E+00 -0.00000000000E+00 -0.19851358138E+04  0.19851358138E+04  0.00000000000E+00 0. -1.
         24    2    1    2    0    0  0.45814340713E+03  0.27295116143E+03 -0.56816387107E+03  0.78332220933E+03  0.79911083208E+02 0.  0.
         25    2    1    2    0    0 -0.50461870282E+03 -0.30269650716E+03  0.10205946468E+04  0.11846957040E+04  0.12500106894E+03 0.  0.
         24    2    1    2    0    0 -0.21543660816E+03 -0.15837432978E+03  0.19296404864E+03  0.33759946213E+03  0.72407957412E+02 0.  0.
        -11    1    3    3    0    0  0.37899488218E+03  0.18777247103E+03 -0.44738008443E+03  0.61566594963E+03  0.00000000000E+00 0.  1.
         12    1    3    3    0    0  0.79148524953E+02  0.85178690404E+02 -0.12078378664E+03  0.16765625970E+03  0.00000000000E+00 0. -1.
        -11    1    5    5    0    0 -0.60101925926E+02 -0.29034344087E+02  0.15283817048E+02  0.68475029756E+02  0.00000000000E+00 0.  1.
         12    1    5    5    0    0 -0.15533468223E+03 -0.12933998569E+03  0.17768023159E+03  0.26912443238E+03  0.00000000000E+00 0. -1.
          5    1    4    4  501    0 -0.24957494960E+03 -0.18686520107E+03  0.64200528536E+03  0.71372202941E+03  0.47000000000E+01 0. -1.
         -5    1    4    4    0  501 -0.25504375322E+03 -0.11583130609E+03  0.37858936144E+03  0.47097367456E+03  0.47000000000E+01 0. -1.
          1    1    1    2  502    0  0.42816764132E+02  0.73169035317E+02  0.98639499197E+02  0.13006434493E+03  0.00000000000E+00 0. -1.
          1    1    1    2  503    0  0.21909513971E+03  0.11495064020E+03 -0.11258793762E+04  0.11527448546E+04  0.00000000000E+00 0. -1.
<mgrwt>
<rscale>  0 0.14501816E+03</rscale>
<asrwt>0</asrwt>
<pdfrwt beam="1">  1        2 0.23577805E+00 0.84776076E+02</pdfrwt>
<pdfrwt beam="2">  1        2 0.29193174E+00 0.24806841E+03</pdfrwt>
<totfact> 0.19168323E+01</totfact>
</mgrwt>
</event>
<event>
13    1  0.2101801E-008  0.8467637E+02  0.7546771E-02  0.1363417E+00
          2   -1    0    0  502    0  0.00000000000E+00  0.00000000000E+00  0.24804950230E+04  0.24804950230E+04  0.00000000000E+00 0. -1.
          2   -1    0    0  503    0 -0.00000000000E+00 -0.00000000000E+00 -0.11992417780E+04  0.11992417780E+04  0.00000000000E+00 0. -1.
         24    2    1    2    0    0  0.78065366662E+02 -0.14748753012E+03  0.69601644612E+02  0.19706709548E+03  0.78385446211E+02 0.  0.
         25    2    1    2    0    0  0.18870861541E+02  0.12171300379E+03 -0.15936290701E+03  0.23704930200E+03  0.12500268294E+03 0.  0.
         24    2    1    2    0    0 -0.41016075878E+02 -0.50561972908E+01 -0.99183659064E+02  0.13975846395E+03  0.89370836464E+02 0.  0.
        -11    1    3    3    0    0 -0.33189497825E+01 -0.74342129966E+02  0.35515682289E+02  0.82456845708E+02  0.00000000000E+00 0.  1.
         12    1    3    3    0    0  0.81384316444E+02 -0.73145400151E+02  0.34085962323E+02  0.11461024978E+03  0.00000000000E+00 0. -1.
        -11    1    5    5    0    0  0.19147275708E+02  0.13240896658E+02 -0.11732926106E+01  0.23309142560E+02  0.00000000000E+00 0.  1.
         12    1    5    5    0    0 -0.60163351585E+02 -0.18297093948E+02 -0.98010366453E+02  0.11644932139E+03  0.00000000000E+00 0. -1.
          5    1    4    4  501    0  0.29183975170E+02  0.14368770677E+03 -0.15201662009E+03  0.21125577926E+03  0.47000000000E+01 0. -1.
         -5    1    4    4    0  501 -0.10313113628E+02 -0.21974702986E+02 -0.73462869148E+01  0.25793522743E+02  0.47000000000E+01 0. -1.
          1    1    1    2  502    0 -0.82667077747E+02 -0.18684621702E+02  0.22862757892E+04  0.22878461367E+04  0.00000000000E+00 0. -1.
          1    1    1    2  503    0  0.26746925422E+02  0.49515345322E+02 -0.81607762271E+03  0.81801580286E+03  0.00000000000E+00 0. -1.
<mgrwt>
<rscale>  0 0.69031749E+02</rscale>
<asrwt>0</asrwt>
<pdfrwt beam="1">  1        2 0.36477868E+00 0.84676372E+02</pdfrwt>
<pdfrwt beam="2">  1        2 0.17635908E+00 0.56277593E+02</pdfrwt>
<totfact> 0.20095486E+01</totfact>
</mgrwt>
</event>
<event>
13    1  0.2101801E-008  0.3098101E+02  0.7546771E-02  0.1593804E+00
          2   -1    0    0  502    0  0.00000000000E+00  0.00000000000E+00  0.20406093465E+04  0.20406093465E+04  0.00000000000E+00 0. -1.
          2   -1    0    0  503    0 -0.00000000000E+00 -0.00000000000E+00 -0.97233489613E+03  0.97233489613E+03  0.00000000000E+00 0. -1.
         24    2    1    2    0    0 -0.47597724974E+02  0.88892478805E+02 -0.23820650863E+03  0.27030922818E+03  0.78468604408E+02 0.  0.
         25    2    1    2    0    0  0.13755014788E+03 -0.28901436573E+02  0.10162420049E+04  0.10335021347E+04  0.12499405452E+03 0.  0.
         24    2    1    2    0    0 -0.74207988834E+02 -0.10804666060E+02 -0.78497496338E+02  0.13289938958E+03  0.76660448760E+02 0.  0.
        -11    1    5    5    0    0 -0.87843332106E+02  0.47582957954E-01 -0.74108603254E+02  0.11492840526E+03  0.00000000000E+00 0.  1.
         12    1    5    5    0    0  0.13635343272E+02 -0.10852249018E+02 -0.43888930843E+01  0.17970984319E+02  0.00000000000E+00 0. -1.
        -13    1    3    3    0    0 -0.65323917401E+01  0.86351059706E+02 -0.15888803678E+03  0.18095465146E+03  0.00000000000E+00 0.  1.
         14    1    3    3    0    0 -0.41065333234E+02  0.25414190990E+01 -0.79318471851E+02  0.89354576724E+02  0.00000000000E+00 0. -1.
          5    1    4    4  501    0  0.57450389729E+02  0.43546268494E+02  0.55929858357E+03  0.56394487351E+03  0.47000000000E+01 0. -1.
         -5    1    4    4    0  501  0.80099758153E+02 -0.72447705067E+02  0.45694342134E+03  0.46955726118E+03  0.47000000000E+01 0. -1.
          1    1    1    2  502    0 -0.23341613016E+02 -0.20357894415E+02  0.97187008908E+03  0.97236348389E+03  0.00000000000E+00 0. -1.
          1    1    1    2  503    0  0.75971789424E+01 -0.28828481756E+02 -0.60313363862E+03  0.60387000631E+03  0.00000000000E+00 0. -1.
<mgrwt>
<rscale>  0 0.30391254E+02</rscale>
<asrwt>0</asrwt>
<pdfrwt beam="1">  1        2 0.30008961E+00 0.30981011E+02</pdfrwt>
<pdfrwt beam="2">  1        2 0.14299043E+00 0.29812724E+02</pdfrwt>
<totfact> 0.50320235E+01</totfact>
</mgrwt>
</event>
<event>
13    1  0.2101801E-008  0.1561942E+03  0.7546771E-02  0.1331219E+00
          2   -1    0    0  503    0  0.00000000000E+00  0.00000000000E+00  0.21170079102E+04  0.21170079102E+04  0.00000000000E+00 0. -1.
         -1   -1    0    0    0  501 -0.00000000000E+00 -0.00000000000E+00 -0.19600814403E+04  0.19600814403E+04  0.00000000000E+00 0.  1.
         24    2    1    2    0    0 -0.46418520579E+02  0.69178772271E+02 -0.55382510590E+03  0.56569351201E+03  0.79665048875E+02 0.  0.
         25    2    1    2    0    0 -0.12389415734E+03 -0.14493798381E+03  0.29290073523E+03  0.37117769096E+03  0.12500102478E+03 0.  0.
         24    2    1    2    0    0  0.84038214742E+00  0.66130879737E+01 -0.24133760135E+02  0.83941223240E+02  0.80120230941E+02 0.  0.
        -11    1    5    5    0    0 -0.16706969583E+02 -0.32715572738E+02 -0.60351720828E+01  0.37227071256E+02  0.00000000000E+00 0.  1.
         12    1    5    5    0    0  0.17547351730E+02  0.39328660712E+02 -0.18098588052E+02  0.46714151984E+02  0.00000000000E+00 0. -1.
        -13    1    3    3    0    0 -0.68795126476E+02  0.50778515086E+02 -0.38293574262E+03  0.39236591340E+03  0.00000000000E+00 0.  1.
         14    1    3    3    0    0  0.22376605897E+02  0.18400257184E+02 -0.17088936328E+03  0.17332759860E+03  0.00000000000E+00 0. -1.
          5    1    4    4  502    0 -0.83029957831E+02 -0.16254427477E+03  0.24604765889E+03  0.30639215983E+03  0.47000000000E+01 0. -1.
         -5    1    4    4    0  502 -0.40864199505E+02  0.17606290954E+02  0.46853076335E+02  0.64785531134E+02  0.47000000000E+01 0. -1.
          1    1    1    2  503    0 -0.40147475196E+02  0.20712845926E+01  0.17396325402E+04  0.17400969757E+04  0.00000000000E+00 0. -1.
         -2    1    1    2    0  501  0.20961977096E+03  0.67074838975E+02 -0.12976479394E+04  0.13161799486E+04  0.00000000000E+00 0.  1.
<mgrwt>
<rscale>  0 0.79241035E+02</rscale>
<asrwt>0</asrwt>
<pdfrwt beam="1">  1        2 0.31132469E+00 0.40200870E+02</pdfrwt>
<pdfrwt beam="2">  1       -1 0.28824727E+00 0.15619417E+03</pdfrwt>
<totfact> 0.50381186E-01</totfact>
</mgrwt>
</event>
<event>
13    1  0.2101801E-008  0.2605624E+02  0.7546771E-02  0.1654770E+00
          2   -1    0    0  503    0  0.00000000000E+00  0.00000000000E+00  0.18679685996E+04  0.18679685996E+04  0.00000000000E+00 0. -1.
          2   -1    0    0  502    0 -0.00000000000E+00 -0.00000000000E+00 -0.16483468144E+04  0.16483468144E+04  0.00000000000E+00 0. -1.
         24    2    1    2    0    0 -0.70890566307E+03 -0.13032372621E+03 -0.33958377627E+03  0.80104193400E+03  0.82580422511E+02 0.  0.
         25    2    1    2    0    0  0.71346472768E+03  0.51523813021E+03 -0.10425304777E+03  0.89498298282E+03  0.12499437228E+03 0.  0.
         24    2    1    2    0    0 -0.10114797661E+02 -0.38356215543E+03  0.14207908436E+03  0.42040952944E+03  0.96620236096E+02 0.  0.
        -11    1    5    5    0    0  0.32842984948E+02 -0.14742510652E+03  0.86466632987E+02  0.17403822084E+03  0.00000000000E+00 0.  1.
         12    1    5    5    0    0 -0.42957782609E+02 -0.23613704892E+03  0.55612451371E+02  0.24637130861E+03  0.00000000000E+00 0. -1.
        -13    1    3    3    0    0 -0.46136665285E+03 -0.12096737104E+03 -0.20528465366E+03  0.51926301837E+03  0.00000000000E+00 0.  1.
         14    1    3    3    0    0 -0.24753901023E+03 -0.93563551703E+01 -0.13429912261E+03  0.28177891564E+03  0.00000000000E+00 0. -1.
          5    1    4    4  501    0  0.67488738525E+03  0.44937589615E+03 -0.80018631261E+02  0.81476177510E+03  0.47000000000E+01 0.  1.
         -5    1    4    4    0  501  0.38577342424E+02  0.65862234066E+02 -0.24234416508E+02  0.80221207720E+02  0.47000000000E+01 0.  1.
          1    1    1    2  502    0  0.22540761895E+01 -0.25968927550E+02 -0.43870325563E+03  0.43947697614E+03  0.00000000000E+00 0. -1.
          1    1    1    2  503    0  0.33016568683E+01  0.24616678976E+02  0.96008278042E+03  0.96040399160E+03  0.00000000000E+00 0. -1.
<mgrwt>
<rscale>  0 0.25439371E+02</rscale>
<asrwt>0</asrwt>
<pdfrwt beam="1">  1        2 0.27470127E+00 0.24837106E+02</pdfrwt>
<pdfrwt beam="2">  1        2 0.24240394E+00 0.26056240E+02</pdfrwt>
<totfact> 0.29317377E+01</totfact>
</mgrwt>
</event>
<event>
13    1  0.2101801E-008  0.3332813E+03  0.7546771E-02  0.1239219E+00
          2   -1    0    0  502    0  0.00000000000E+00  0.00000000000E+00  0.19381951781E+04  0.19381951781E+04  0.00000000000E+00 0. -1.
          2   -1    0    0  503    0 -0.00000000000E+00 -0.00000000000E+00 -0.23373050319E+04  0.23373050319E+04  0.00000000000E+00 0. -1.
         24    2    1    2    0    0  0.74901003412E+02  0.45354606860E+02 -0.14424047495E+03  0.18676955614E+03  0.80064672666E+02 0.  0.
         25    2    1    2    0    0  0.16563879689E+03 -0.34843925925E+03 -0.18924366263E+03  0.44751560187E+03  0.12494367392E+03 0.  0.
         24    2    1    2    0    0 -0.22567236507E+02 -0.31123558520E+01 -0.13581723121E+03  0.15958424464E+03  0.80634012196E+02 0.  0.
        -11    1    3    3    0    0 -0.10112661150E+02 -0.94028349775E+01 -0.36414931366E+02  0.38945172326E+02  0.00000000000E+00 0.  1.
         12    1    3    3    0    0  0.85013664562E+02  0.54757441837E+02 -0.10782554359E+03  0.14782438381E+03  0.00000000000E+00 0. -1.
        -11    1    5    5    0    0 -0.25447801271E+01  0.37974909445E+02 -0.63612776933E+02  0.74129312977E+02  0.00000000000E+00 0.  1.
         12    1    5    5    0    0 -0.20022456379E+02 -0.41087265297E+02 -0.72204454273E+02  0.85454931665E+02  0.00000000000E+00 0. -1.
          5    1    4    4  501    0  0.40465836766E+02 -0.80072568624E+02  0.10263803564E+02  0.90424199498E+02  0.47000000000E+01 0. -1.
         -5    1    4    4    0  501  0.12517296012E+03 -0.26836669062E+03 -0.19950746619E+03  0.35709140237E+03  0.47000000000E+01 0. -1.
          1    1    1    2  502    0 -0.19006913418E+03  0.27097083207E+03  0.17601880111E+04  0.17910369349E+04  0.00000000000E+00 0. -1.
          1    1    1    2  503    0 -0.27903429615E+02  0.35226176167E+02 -0.16899964962E+04  0.16905938725E+04  0.00000000000E+00 0. -1.
<mgrwt>
<rscale>  0 0.12238145E+03</rscale>
<asrwt>0</asrwt>
<pdfrwt beam="1">  1        2 0.28502870E+00 0.33328126E+03</pdfrwt>
<pdfrwt beam="2">  1        2 0.34372133E+00 0.44938679E+02</pdfrwt>
<totfact> 0.94948289E+00</totfact>
</mgrwt>
</event>
<event>
13    1  0.2101801E-008  0.3106554E+03  0.7546771E-02  0.1243107E+00
          2   -1    0    0  503    0  0.00000000000E+00  0.00000000000E+00  0.18969713914E+04  0.18969713914E+04  0.00000000000E+00 0. -1.
          2   -1    0    0  502    0 -0.00000000000E+00 -0.00000000000E+00 -0.14439113702E+04  0.14439113702E+04  0.00000000000E+00 0. -1.
         24    2    1    2    0    0  0.24251988634E+02 -0.40289331824E+02  0.80970125649E+03  0.81500646739E+03  0.80050158768E+02 0.  0.
         25    2    1    2    0    0 -0.44197555302E+02 -0.35333038163E+03  0.40223254112E+03  0.55155361830E+03  0.12499837696E+03 0.  0.
         24    2    1    2    0    0  0.32382530346E+02  0.81198981354E+02  0.29183681032E+03  0.31463642924E+03  0.78647669394E+02 0.  0.
        -11    1    5    5    0    0  0.31292406343E+02  0.96508832491E+02  0.23968881263E+03  0.26027657664E+03  0.00000000000E+00 0.  1.
         12    1    5    5    0    0  0.10901240030E+01 -0.15309851137E+02  0.52147997686E+02  0.54359852602E+02  0.00000000000E+00 0. -1.
        -13    1    3    3    0    0  0.53462955945E+02 -0.20607292013E+02  0.53364955249E+03  0.53671667853E+03  0.00000000000E+00 0.  1.
         14    1    3    3    0    0 -0.29210967310E+02 -0.19682039811E+02  0.27605170400E+03  0.27828978886E+03  0.00000000000E+00 0. -1.
          5    1    4    4  501    0  0.30573602830E+02 -0.16877675142E+03  0.23795107779E+03  0.29336520317E+03  0.47000000000E+01 0.  1.
         -5    1    4    4    0  501 -0.74771158132E+02 -0.18455363021E+03  0.16428146333E+03  0.25818841513E+03  0.47000000000E+01 0.  1.
          1    1    1    2  502    0 -0.58032700340E+02  0.30409763372E+03 -0.13356205872E+04  0.13710308232E+04  0.00000000000E+00 0. -1.
          1    1    1    2  503    0  0.45595736661E+02  0.83230983798E+01  0.28491000050E+03  0.28865542357E+03  0.00000000000E+00 0. -1.
<mgrwt>
<rscale>  0 0.11999425E+03</rscale>
<asrwt>0</asrwt>
<pdfrwt beam="1">  1        2 0.27896638E+00 0.46349166E+02</pdfrwt>
<pdfrwt beam="2">  1        2 0.21233991E+00 0.31065542E+03</pdfrwt>
<totfact> 0.27302331E+01</totfact>
</mgrwt>
</event>
<event>
13    1  0.2101801E-008  0.3848535E+02  0.7546771E-02  0.1558925E+00
          2   -1    0    0  502    0  0.00000000000E+00  0.00000000000E+00  0.31122904333E+04  0.31122904333E+04  0.00000000000E+00 0. -1.
          2   -1    0    0  503    0 -0.00000000000E+00 -0.00000000000E+00 -0.16310148992E+03  0.16310148992E+03  0.00000000000E+00 0. -1.
         24    2    1    2    0    0 -0.50542633711E+02  0.12343187809E+03  0.24286764503E+03  0.28839461476E+03  0.79979837890E+02 0.  0.
         25    2    1    2    0    0  0.28679124078E+02 -0.20947914496E+03  0.15038742898E+03  0.28800314658E+03  0.12500171725E+03 0.  0.
         24    2    1    2    0    0  0.35334847076E+02  0.75301845038E+02  0.11475308298E+04  0.11536946774E+04  0.85237808965E+02 0.  0.
        -11    1    3    3    0    0  0.15523786202E+02  0.57117296975E+02  0.68826238001E+02  0.90776784417E+02  0.00000000000E+00 0.  1.
         12    1    3    3    0    0 -0.66066419913E+02  0.66314581112E+02  0.17404140703E+03  0.19761783034E+03  0.00000000000E+00 0. -1.
        -13    1    5    5    0    0 -0.39799777187E+01  0.77887839485E+02  0.84912604068E+03  0.85270005789E+03  0.00000000000E+00 0.  1.
         14    1    5    5    0    0  0.39314824794E+02 -0.25859944469E+01  0.29840478910E+03  0.30099461951E+03  0.00000000000E+00 0. -1.
          5    1    4    4  501    0  0.40637146097E+02 -0.21247690680E+03  0.16209795918E+03  0.27036207563E+03  0.47000000000E+01 0.  1.
         -5    1    4    4    0  501 -0.11958022019E+02  0.29977618410E+01 -0.11710530207E+02  0.17641070953E+02  0.47000000000E+01 0.  1.
          1    1    1    2  502    0 -0.25562395786E+01  0.38472103906E+02  0.14733440635E+04  0.14738484884E+04  0.00000000000E+00 0. -1.
          1    1    1    2  503    0 -0.10915097864E+02 -0.27726682072E+02 -0.64941023916E+02  0.71450996126E+02  0.00000000000E+00 0. -1.
<mgrwt>
<rscale>  0 0.33864116E+02</rscale>
<asrwt>0</asrwt>
<pdfrwt beam="1">  1        2 0.45768973E+00 0.38485350E+02</pdfrwt>
<pdfrwt beam="2">  1        2 0.23985515E-01 0.29797790E+02</pdfrwt>
<totfact> 0.96072912E+01</totfact>
</mgrwt>
</event>
<event>
13    1  0.2101801E-008  0.1081296E+03  0.7546771E-02  0.1305428E+00
          2   -1    0    0  503    0  0.00000000000E+00  0.00000000000E+00  0.36806860768E+04  0.36806860768E+04  0.00000000000E+00 0. -1.
          2   -1    0    0  502    0 -0.00000000000E+00 -0.00000000000E+00 -0.14594519572E+04  0.14594519572E+04  0.00000000000E+00 0. -1.
         24    2    1    2    0    0  0.24212335001E+03  0.44743217803E+02 -0.20810819383E+03  0.33188790555E+03  0.78834569530E+02 0.  0.
         25    2    1    2    0    0 -0.21501850101E+03  0.64083239406E+02  0.16967909010E+04  0.17161190789E+04  0.12500285502E+03 0.  0.
         24    2    1    2    0    0 -0.49243714771E+00 -0.57470460488E+02 -0.23975854771E+03  0.25853290567E+03  0.77794638552E+02 0.  0.
        -11    1    3    3    0    0  0.20566192079E+03  0.37168315550E+02 -0.20769631081E+03  0.29464566325E+03  0.00000000000E+00 0.  1.
         12    1    3    3    0    0  0.36461429216E+02  0.75749022534E+01 -0.41188302542E+00  0.37242242309E+02  0.00000000000E+00 0. -1.
        -13    1    5    5    0    0  0.31771392995E+02 -0.46187398382E+01 -0.55127831672E+02  0.63795234896E+02  0.00000000000E+00 0.  1.
         14    1    5    5    0    0 -0.32263830143E+02 -0.52851720650E+02 -0.18463071604E+03  0.19473767077E+03  0.00000000000E+00 0. -1.
          5    1    4    4  501    0 -0.10624048125E+03 -0.25040654784E+02  0.94306988370E+03  0.94937714834E+03  0.47000000000E+01 0. -1.
         -5    1    4    4    0  501 -0.10877801976E+03  0.89123894190E+02  0.75372101733E+03  0.76674193055E+03  0.47000000000E+01 0. -1.
          1    1    1    2  502    0 -0.96220701787E+02 -0.28826676366E+02 -0.92722747470E+03  0.93265223453E+03  0.00000000000E+00 0. -1.
          1    1    1    2  503    0  0.69608289935E+02 -0.22529320356E+02  0.18995374348E+04  0.19009459094E+04  0.00000000000E+00 0. -1.
<mgrwt>
<rscale>  0 0.88944554E+02</rscale>
<asrwt>0</asrwt>
<pdfrwt beam="1">  1        2 0.54127736E+00 0.73163408E+02</pdfrwt>
<pdfrwt beam="2">  1        2 0.21462529E+00 0.10812965E+03</pdfrwt>
<totfact> 0.32656589E+00</totfact>
</mgrwt>
</event>
<event>
13    1  0.2101801E-008  0.6382518E+02  0.7546771E-02  0.1440708E+00
         -1   -1    0    0    0  501 -0.00000000000E+00  0.00000000000E+00  0.96997401748E+03  0.96997401748E+03  0.00000000000E+00 0.  1.
          2   -1    0    0  503    0  0.00000000000E+00 -0.00000000000E+00 -0.10024462885E+04  0.10024462885E+04  0.00000000000E+00 0. -1.
         24    2    1    2    0    0  0.22744286229E+02  0.89239070995E+02  0.49078382156E+02  0.13184877985E+03  0.80588453291E+02 0.  0.
         25    2    1    2    0    0  0.75181081237E+02 -0.12522007316E+03  0.28302353793E+03  0.34213980032E+03  0.12500023297E+03 0.  0.
         24    2    1    2    0    0 -0.41606234805E+02  0.37743665804E+02 -0.51595447516E+02  0.10997318516E+03  0.79223406684E+02 0.  0.
        -11    1    5    5    0    0 -0.29437557234E+01  0.84697790318E+01  0.20906180980E+02  0.22747994588E+02  0.00000000000E+00 0.  1.
         12    1    5    5    0    0 -0.38662479081E+02  0.29273886772E+02 -0.72501628496E+02  0.87225190570E+02  0.00000000000E+00 0. -1.
        -13    1    3    3    0    0 -0.15548562567E+02  0.59283489309E+02 -0.20136615323E+01  0.61321649809E+02  0.00000000000E+00 0.  1.
         14    1    3    3    0    0  0.38292848796E+02  0.29955581686E+02  0.51092043688E+02  0.70527130037E+02  0.00000000000E+00 0. -1.
          5    1    4    4  502    0  0.58395841352E+02 -0.83594744940E+02  0.27869918644E+03  0.29680546187E+03  0.47000000000E+01 0. -1.
         -5    1    4    4    0  502  0.16785239885E+02 -0.41625328217E+02  0.43243514854E+01  0.45334338453E+02  0.47000000000E+01 0. -1.
          1    1    1    2  503    0 -0.75793622322E+01  0.39828717221E+02 -0.84832414029E+03  0.84929242340E+03  0.00000000000E+00 0. -1.
         -2    1    1    2    0  501 -0.48739770429E+02 -0.41591380863E+02  0.53534539672E+03  0.53916611723E+03  0.00000000000E+00 0.  1.
<mgrwt>
<rscale>  0 0.50869389E+02</rscale>
<asrwt>0</asrwt>
<pdfrwt beam="2">  1        2 0.14741857E+00 0.40543476E+02</pdfrwt>
<pdfrwt beam="1">  1       -1 0.14264324E+00 0.63825183E+02</pdfrwt>
<totfact> 0.16672133E+01</totfact>
</mgrwt>
</event>
<event>
13    1  0.2101801E-008  0.1564147E+03  0.7546771E-02  0.1302246E+00
          2   -1    0    0  502    0  0.00000000000E+00  0.00000000000E+00  0.85973415884E+03  0.85973415884E+03  0.00000000000E+00 0. -1.
          2   -1    0    0  503    0 -0.00000000000E+00 -0.00000000000E+00 -0.12274409050E+04  0.12274409050E+04  0.00000000000E+00 0. -1.
         24    2    1    2    0    0 -0.53503058766E+02  0.69733110387E+02 -0.13319972268E+03  0.18820163767E+03  0.99761747767E+02 0.  0.
         25    2    1    2    0    0  0.13474210750E+03 -0.42836985022E+03 -0.51346464021E+03  0.69348810134E+03  0.12499458325E+03 0.  0.
         24    2    1    2    0    0 -0.58385103286E+02  0.16149203736E+03  0.44451279395E+03  0.48335475894E+03  0.80942575858E+02 0.  0.
        -11    1    5    5    0    0  0.31390157796E+01  0.97098058971E+02  0.18453197856E+03  0.20854241196E+03  0.00000000000E+00 0.  1.
         12    1    5    5    0    0 -0.61524119066E+02  0.64393978393E+02  0.25998081538E+03  0.27481234697E+03  0.00000000000E+00 0. -1.
        -13    1    3    3    0    0 -0.64770346696E+02  0.87573569352E+02 -0.12437959755E+03  0.16533182436E+03  0.00000000000E+00 0.  1.
         14    1    3    3    0    0  0.11267287930E+02 -0.17840458965E+02 -0.88201251323E+01  0.22869813308E+02  0.00000000000E+00 0. -1.
          5    1    4    4  501    0  0.11519561664E+03 -0.31246412571E+03 -0.29295941255E+03  0.44356641820E+03  0.47000000000E+01 0.  1.
         -5    1    4    4    0  501  0.19546490858E+02 -0.11590572450E+03 -0.22050522766E+03  0.24992168314E+03  0.47000000000E+01 0.  1.
          1    1    1    2  502    0 -0.38354448165E+02  0.14743094181E+03  0.25571576637E+03  0.29765332094E+03  0.00000000000E+00 0. -1.
          1    1    1    2  503    0  0.15500502718E+02  0.49713760659E+02 -0.42127094363E+03  0.42447724501E+03  0.00000000000E+00 0. -1.
<mgrwt>
<rscale>  0 0.90250616E+02</rscale>
<asrwt>0</asrwt>
<pdfrwt beam="1">  1        2 0.12643149E+00 0.15641473E+03</pdfrwt>
<pdfrwt beam="2">  1        2 0.18050601E+00 0.52074212E+02</pdfrwt>
<totfact> 0.12529065E+02</totfact>
</mgrwt>
</event>
<event>
13    1  0.2101801E-008  0.1263990E+03  0.7546771E-02  0.1274387E+00
          2   -1    0    0  503    0  0.00000000000E+00  0.00000000000E+00  0.28350191145E+04  0.28350191145E+04  0.00000000000E+00 0. -1.
          2   -1    0    0  502    0 -0.00000000000E+00 -0.00000000000E+00 -0.15576231136E+04  0.15576231136E+04  0.00000000000E+00 0. -1.
         24    2    1    2    0    0  0.20549475858E+03  0.13893074914E+03 -0.13699607597E+00  0.26071345271E+03  0.80259808090E+02 0.  0.
         25    2    1    2    0    0  0.74312041772E+02 -0.21049622419E+03  0.25040455909E+03  0.35799296166E+03  0.12500230972E+03 0.  0.
         24    2    1    2    0    0 -0.10432394949E+03  0.46603311507E+01 -0.38304206000E+02  0.13751390912E+03  0.80855784452E+02 0.  0.
        -11    1    3    3    0    0  0.15275384506E+03  0.13301831508E+03  0.20892877107E+02  0.20362740887E+03  0.00000000000E+00 0.  1.
         12    1    3    3    0    0  0.52740913512E+02  0.59124340562E+01 -0.21029873183E+02  0.57086043834E+02  0.00000000000E+00 0. -1.
        -11    1    5    5    0    0  0.14394369428E+01  0.62109954094E+01 -0.30822386518E+02  0.31474878131E+02  0.00000000000E+00 0.  1.
         12    1    5    5    0    0 -0.10576338643E+03 -0.15506642587E+01 -0.74818194823E+01  0.10603903098E+03  0.00000000000E+00 0. -1.
          5    1    4    4  501    0  0.50762668460E+02 -0.95512051280E+02  0.37032183116E+02  0.11442409290E+03  0.47000000000E+01 0. -1.
         -5    1    4    4    0  501  0.23549373313E+02 -0.11498417291E+03  0.21337237597E+03  0.24356886876E+03  0.47000000000E+01 0. -1.
          1    1    1    2  502    0 -0.49389279498E+02  0.67588028620E+02 -0.12824382333E+04  0.12851674073E+04  0.00000000000E+00 0. -1.
          1    1    1    2  503    0 -0.12609357136E+03 -0.68288472464E+00  0.23478708772E+04  0.23512544973E+04  0.00000000000E+00 0. -1.
<mgrwt>
<rscale>  0 0.10286360E+03</rscale>
<asrwt>0</asrwt>
<pdfrwt beam="1">  1        2 0.41691457E+00 0.12639900E+03</pdfrwt>
<pdfrwt beam="2">  1        2 0.22906222E+00 0.83710469E+02</pdfrwt>
<totfact> 0.80979053E+00</totfact>
</mgrwt>
</event>
<event>
13    1  0.2101801E-008  0.8473983E+02  0.7546771E-02  0.1334341E+00
          2   -1    0    0  503    0  0.00000000000E+00  0.00000000000E+00  0.34196880584E+04  0.34196880584E+04  0.00000000000E+00 0. -1.
          2   -1    0    0  502    0 -0.00000000000E+00 -0.00000000000E+00 -0.18491415093E+04  0.18491415093E+04  0.00000000000E+00 0. -1.
         24    2    1    2    0    0  0.47102036082E+03 -0.17595452632E+03  0.30819808965E+03  0.59942705948E+03  0.10726864190E+03 0.  0.
         25    2    1    2    0    0 -0.87906186508E+03 -0.20016195509E+03  0.98110789832E+03  0.13382868089E+04  0.12499721528E+03 0.  0.
         24    2    1    2    0    0  0.30006469129E+03  0.42227865710E+03  0.21521878146E+03  0.56624432397E+03  0.77171415197E+02 0.  0.
        -11    1    5    5    0    0  0.19456889685E+03  0.23198230838E+03  0.15674090132E+03  0.34094069451E+03  0.00000000000E+00 0.  1.
         12    1    5    5    0    0  0.10549579444E+03  0.19029634872E+03  0.58477880144E+02  0.22530362946E+03  0.00000000000E+00 0. -1.
        -13    1    3    3    0    0  0.39700085530E+03 -0.16492317386E+03  0.21732446434E+03  0.48170453100E+03  0.00000000000E+00 0.  1.
         14    1    3    3    0    0  0.74019505517E+02 -0.11031352454E+02  0.90873625310E+02  0.11772252848E+03  0.00000000000E+00 0. -1.
          5    1    4    4  501    0 -0.31024699843E+03 -0.13027328134E+03  0.34058702374E+03  0.47879634356E+03  0.47000000000E+01 0.  1.
         -5    1    4    4    0  501 -0.56881486664E+03 -0.69888673752E+02  0.64052087458E+03  0.85949046534E+03  0.47000000000E+01 0.  1.
          1    1    1    2  502    0  0.66551397156E+02  0.27737481211E+02 -0.13471922795E+04  0.13491202668E+04  0.00000000000E+00 0. -1.
          1    1    1    2  503    0  0.41425415808E+02 -0.73899656912E+02  0.14132140591E+04  0.14157511085E+04  0.00000000000E+00 0. -1.
<mgrwt>
<rscale>  0 0.78165011E+02</rscale>
<asrwt>0</asrwt>
<pdfrwt beam="1">  1        2 0.50289530E+00 0.84739829E+02</pdfrwt>
<pdfrwt beam="2">  1        2 0.27193258E+00 0.72100321E+02</pdfrwt>
<totfact> 0.30370812E+00</totfact>
</mgrwt>
</event>
<event>
13    1  0.2101801E-008  0.9904734E+02  0.7546771E-02  0.1292427E+00
          2   -1    0    0  503    0  0.00000000000E+00  0.00000000000E+00  0.16436611319E+04  0.16436611319E+04  0.00000000000E+00 0. -1.
          2   -1    0    0  502    0 -0.00000000000E+00 -0.00000000000E+00 -0.28542430459E+04  0.28542430459E+04  0.00000000000E+00 0. -1.
         24    2    1    2    0    0  0.60410069779E+02  0.19157416005E+02 -0.12227523251E+04  0.12272492430E+04  0.83672412671E+02 0.  0.
         25    2    1    2    0    0  0.16287864361E+03 -0.43824671938E+02 -0.60150506297E+03  0.63708981289E+03  0.12500013793E+03 0.  0.
         24    2    1    2    0    0 -0.48618120243E+02 -0.37457961951E+02  0.42209522500E+03  0.43415766167E+03  0.81004170782E+02 0.  0.
        -13    1    3    3    0    0  0.41372767126E+01 -0.18856325671E+02 -0.67877403367E+03  0.67904850111E+03  0.00000000000E+00 0.  1.
         14    1    3    3    0    0  0.56272793066E+02  0.38013741676E+02 -0.54397829147E+03  0.54820074187E+03  0.00000000000E+00 0. -1.
        -13    1    5    5    0    0 -0.13881997944E+02 -0.58723360026E+02  0.22924869103E+03  0.23705717711E+03  0.00000000000E+00 0.  1.
         14    1    5    5    0    0 -0.34736122299E+02  0.21265398075E+02  0.19284653397E+03  0.19710048456E+03  0.00000000000E+00 0. -1.
          5    1    4    4  501    0  0.16594181440E+02 -0.40919992002E+02 -0.51809567025E+02  0.68235869148E+02  0.47000000000E+01 0.  1.
         -5    1    4    4    0  501  0.14628446217E+03 -0.29046799363E+01 -0.54969549595E+03  0.56885394374E+03  0.47000000000E+01 0.  1.
          1    1    1    2  502    0 -0.97277399653E+02  0.16070159643E+02 -0.99978912759E+03  0.10046389611E+04  0.00000000000E+00 0. -1.
          1    1    1    2  503    0 -0.77393193495E+02  0.46055058242E+02  0.11913693767E+04  0.11947684991E+04  0.00000000000E+00 0. -1.
<mgrwt>
<rscale>  0 0.94446745E+02</rscale>
<asrwt>0</asrwt>
<pdfrwt beam="1">  1        2 0.24171488E+00 0.90059840E+02</pdfrwt>
<pdfrwt beam="2">  1        2 0.41974162E+00 0.99047341E+02</pdfrwt>
<totfact> 0.73989021E+00</totfact>
</mgrwt>
</event>
<event>
13    1  0.2101801E-008  0.2593009E+03  0.7546771E-02  0.1172706E+00
          4   -1    0    0  503    0  0.00000000000E+00  0.00000000000E+00  0.45068831158E+03  0.45068831158E+03  0.00000000000E+00 0. -1.
         -1   -1    0    0    0  501 -0.00000000000E+00 -0.00000000000E+00 -0.15506759940E+04  0.15506759940E+04  0.00000000000E+00 0.  1.
         24    2    1    2    0    0 -0.12568078906E+03 -0.17156337923E+02  0.16016481859E+03  0.21946767191E+03  0.80145425514E+02 0.  0.
         25    2    1    2    0    0  0.74504565635E+02  0.63560909331E+01 -0.48258942476E+02  0.15344271738E+03  0.12499764716E+03 0.  0.
         24    2    1    2    0    0 -0.21338400264E+03  0.91840456553E+02 -0.41907352618E+03  0.48581118474E+03  0.80140406978E+02 0.  0.
        -13    1    3    3    0    0 -0.22556452068E+02 -0.13244153007E+02 -0.30807675964E+01  0.26338038039E+02  0.00000000000E+00 0.  1.
         14    1    3    3    0    0 -0.10312433699E+03 -0.39121849163E+01  0.16324558618E+03  0.19312963387E+03  0.00000000000E+00 0. -1.
        -13    1    5    5    0    0 -0.89225971796E+01 -0.11660153193E+02 -0.42763079769E+02  0.45213415091E+02  0.00000000000E+00 0.  1.
         14    1    5    5    0    0 -0.20446140546E+03  0.10350060975E+03 -0.37631044641E+03  0.44059776965E+03  0.00000000000E+00 0. -1.
          5    1    4    4  502    0  0.45019737483E+02 -0.17329900619E+02  0.36390801418E+02  0.60609262051E+02  0.47000000000E+01 0.  1.
         -5    1    4    4    0  502  0.29484828153E+02  0.23685991553E+02 -0.84649743895E+02  0.92833455330E+02  0.47000000000E+01 0.  1.
          3    1    1    2  503    0  0.54010933262E+02  0.10507139434E+03  0.13136736588E+03  0.17667643770E+03  0.00000000000E+00 0. -1.
         -2    1    1    2    0  501  0.21054929281E+03 -0.18611160390E+03 -0.92418739820E+03  0.96596629382E+03  0.00000000000E+00 0.  1.
<mgrwt>
<rscale>  0 0.17502554E+03</rscale>
<asrwt>0</asrwt>
<pdfrwt beam="1">  1        4 0.66277694E-01 0.11814050E+03</pdfrwt>
<pdfrwt beam="2">  1       -1 0.22804058E+00 0.25930090E+03</pdfrwt>
<totfact> 0.89625258E-01</totfact>
</mgrwt>
</event>
<event>
13    1  0.2101801E-008  0.7119633E+02  0.7546771E-02  0.1392565E+00
          2   -1    0    0  503    0  0.00000000000E+00  0.00000000000E+00  0.19091509693E+04  0.19091509693E+04  0.00000000000E+00 0. -1.
          2   -1    0    0  502    0 -0.00000000000E+00 -0.00000000000E+00 -0.16478244479E+04  0.16478244479E+04  0.00000000000E+00 0. -1.
         24    2    1    2    0    0 -0.42612178323E+02 -0.52464956317E+03 -0.57071335041E+03  0.78068611025E+03  0.81756421911E+02 0.  0.
         25    2    1    2    0    0 -0.12299937259E+03  0.42910846487E+02  0.11332526043E+04  0.11475422538E+04  0.12498629051E+03 0.  0.
         24    2    1    2    0    0  0.14505674043E+03  0.46630423505E+03 -0.19512792454E+03  0.53707049573E+03  0.10903537448E+03 0.  0.
        -11    1    5    5    0    0  0.42508446032E+02  0.30146433891E+03 -0.14112073254E+03  0.33556337222E+03  0.00000000000E+00 0.  1.
         12    1    5    5    0    0  0.10254829439E+03  0.16483989613E+03 -0.54007191993E+02  0.20150712351E+03  0.00000000000E+00 0. -1.
        -13    1    3    3    0    0  0.14066617163E+02 -0.24394850277E+03 -0.29635780474E+03  0.38410505093E+03  0.00000000000E+00 0.  1.
         14    1    3    3    0    0 -0.56678795486E+02 -0.28070106041E+03 -0.27435554566E+03  0.39658105931E+03  0.00000000000E+00 0. -1.
          5    1    4    4  501    0 -0.51136089080E+02 -0.39333254869E+02  0.28344028982E+03  0.29072752267E+03  0.47000000000E+01 0.  1.
         -5    1    4    4    0  501 -0.71863283513E+02  0.82244101355E+02  0.84981231445E+03  0.85681473115E+03  0.47000000000E+01 0.  1.
          1    1    1    2  502    0  0.20806989915E+02  0.68167211599E+02 -0.59533831731E+03  0.59958936917E+03  0.00000000000E+00 0. -1.
          1    1    1    2  503    0 -0.25217942456E+00 -0.52732729958E+02  0.48925350932E+03  0.49208718819E+03  0.00000000000E+00 0. -1.
<mgrwt>
<rscale>  0 0.61273320E+02</rscale>
<asrwt>0</asrwt>
<pdfrwt beam="1">  1        2 0.28075750E+00 0.52733333E+02</pdfrwt>
<pdfrwt beam="2">  1        2 0.24232713E+00 0.71196329E+02</pdfrwt>
<totfact> 0.23524824E+01</totfact>
</mgrwt>
</event>
<event>
13    1  0.2101801E-008  0.1534956E+03  0.7546771E-02  0.1294512E+00
          2   -1    0    0  503    0  0.00000000000E+00  0.00000000000E+00  0.15825100971E+04  0.15825100971E+04  0.00000000000E+00 0. -1.
          2   -1    0    0  502    0 -0.00000000000E+00 -0.00000000000E+00 -0.50579040177E+03  0.50579040177E+03  0.00000000000E+00 0. -1.
         24    2    1    2    0    0 -0.41751525470E+02  0.46561414164E+02 -0.60401311543E+02  0.11985355585E+03  0.82494855878E+02 0.  0.
         25    2    1    2    0    0  0.38784866444E+01 -0.15105555376E+03  0.15116894940E+03  0.24761254548E+03  0.12500839345E+03 0.  0.
         24    2    1    2    0    0  0.95576741550E+02 -0.87792091409E+02 -0.64772499429E+02  0.16462801548E+03  0.77875169077E+02 0.  0.
        -11    1    3    3    0    0 -0.64941844100E+02  0.34576266849E+02 -0.29157723861E+02  0.79139965915E+02  0.00000000000E+00 0.  1.
         12    1    3    3    0    0  0.23190318630E+02  0.11985147315E+02 -0.31243587682E+02  0.40713589937E+02  0.00000000000E+00 0. -1.
        -11    1    5    5    0    0  0.86234122247E+02 -0.66321394354E+02 -0.15253786232E+02  0.10985230623E+03  0.00000000000E+00 0.  1.
         12    1    5    5    0    0  0.93426193036E+01 -0.21470697055E+02 -0.49518713197E+02  0.54775709253E+02  0.00000000000E+00 0. -1.
          5    1    4    4  501    0  0.45403367917E+01 -0.16776877540E+03  0.15641245702E+03  0.22946442724E+03  0.47000000000E+01 0. -1.
         -5    1    4    4    0  501 -0.66185014733E+00  0.16713221642E+02 -0.52435076194E+01  0.18148118234E+02  0.47000000000E+01 0. -1.
          1    1    1    2  502    0 -0.10695298375E+03  0.22097477303E+03 -0.19231829882E+03  0.31185753015E+03  0.00000000000E+00 0. -1.
          1    1    1    2  503    0  0.49249281026E+02 -0.28688542022E+02  0.12430428558E+04  0.12443488520E+04  0.00000000000E+00 0. -1.
<mgrwt>
<rscale>  0 0.93534003E+02</rscale>
<asrwt>0</asrwt>
<pdfrwt beam="1">  1        2 0.23272207E+00 0.56995826E+02</pdfrwt>
<pdfrwt beam="2">  1        2 0.74380942E-01 0.15349562E+03</pdfrwt>
<totfact> 0.15490270E+02</totfact>
</mgrwt>
</event>
<event>
13    1  0.2101801E-008  0.9875483E+02  0.7546771E-02  0.1418999E+00
          2   -1    0    0  502    0  0.00000000000E+00  0.00000000000E+00  0.20478720131E+04  0.20478720131E+04  0.00000000000E+00 0. -1.
          2   -1    0    0  503    0 -0.00000000000E+00 -0.00000000000E+00 -0.47029254434E+03  0.47029254434E+03  0.00000000000E+00 0. -1.
         24    2    1    2    0    0 -0.19615316349E+03  0.23546314332E+02 -0.28964895784E+03  0.35981413357E+03  0.80865316880E+02 0.  0.
         25    2    1    2    0    0  0.16504716237E+03 -0.89852791440E+02  0.29734529835E+03  0.37329088406E+03  0.12497106761E+03 0.  0.
         24    2    1    2    0    0  0.83797448089E+02 -0.49195489392E+02  0.70198968404E+02  0.14777433422E+03  0.86412673873E+02 0.  0.
        -11    1    5    5    0    0  0.93733002113E+02 -0.61568002457E+02  0.51955904194E+02  0.12359575475E+03  0.00000000000E+00 0.  1.
         12    1    5    5    0    0 -0.99355540240E+01  0.12372513065E+02  0.18243064211E+02  0.24178579468E+02  0.00000000000E+00 0. -1.
        -13    1    3    3    0    0 -0.67493203007E+02  0.42236469919E+02 -0.14426628289E+03  0.16477867648E+03  0.00000000000E+00 0.  1.
         14    1    3    3    0    0 -0.12865996048E+03 -0.18690155587E+02 -0.14538267494E+03  0.19503545708E+03  0.00000000000E+00 0. -1.
          5    1    4    4  501    0  0.10005578417E+03 -0.11778360059E+03  0.19706822183E+03  0.25048375311E+03  0.47000000000E+01 0. -1.
         -5    1    4    4    0  501  0.64991378198E+02  0.27930809147E+02  0.10027707652E+03  0.12280713096E+03  0.47000000000E+01 0. -1.
          1    1    1    2  502    0 -0.74008367853E+01  0.29992181523E+02  0.15342292703E+04  0.15345402430E+04  0.00000000000E+00 0. -1.
          1    1    1    2  503    0 -0.45290610190E+02  0.85509784977E+02 -0.34545110448E+02  0.10274496267E+03  0.00000000000E+00 0. -1.
<mgrwt>
<rscale>  0 0.55233273E+02</rscale>
<asrwt>0</asrwt>
<pdfrwt beam="1">  1        2 0.30115765E+00 0.30891800E+02</pdfrwt>
<pdfrwt beam="2">  1        2 0.69160669E-01 0.98754827E+02</pdfrwt>
<totfact> 0.10947575E+02</totfact>
</mgrwt>
</event>
<event>
13    1  0.2101801E-008  0.9110580E+02  0.7546771E-02  0.1369802E+00
          2   -1    0    0  502    0  0.00000000000E+00  0.00000000000E+00  0.22302437114E+04  0.22302437114E+04  0.00000000000E+00 0. -1.
          4   -1    0    0  503    0 -0.00000000000E+00 -0.00000000000E+00 -0.12392356683E+04  0.12392356683E+04  0.00000000000E+00 0. -1.
         24    2    1    2    0    0  0.14567499028E+03 -0.38065381037E+02 -0.27324856393E+03  0.32253981059E+03  0.81835051760E+02 0.  0.
         25    2    1    2    0    0 -0.71413311440E+02 -0.92776663918E+01  0.29475488642E+03  0.32816292913E+03  0.12499811535E+03 0.  0.
         24    2    1    2    0    0  0.52727337554E+02  0.83156000158E+01 -0.11313703100E+03  0.14970139994E+03  0.82226516601E+02 0.  0.
        -11    1    3    3    0    0 -0.81283097134E+00  0.15333164114E+02 -0.27724840967E+02  0.31692797645E+02  0.00000000000E+00 0.  1.
         12    1    3    3    0    0  0.14648782125E+03 -0.53398545150E+02 -0.24552372296E+03  0.29084701294E+03  0.00000000000E+00 0. -1.
        -13    1    5    5    0    0  0.73127204287E+02  0.15379208958E+02 -0.98418841089E+02  0.12357336427E+03  0.00000000000E+00 0.  1.
         14    1    5    5    0    0 -0.20399866733E+02 -0.70636089426E+01 -0.14718189913E+02  0.26128035677E+02  0.00000000000E+00 0. -1.
          5    1    4    4  501    0 -0.74285754330E+02  0.65350275207E+01  0.30111784244E+03  0.31025010059E+03  0.47000000000E+01 0.  1.
         -5    1    4    4    0  501  0.28724428898E+01 -0.15812693913E+02 -0.63629560197E+01  0.17912828538E+02  0.47000000000E+01 0.  1.
          1    1    1    2  502    0 -0.41952387300E+02 -0.26460398845E+02  0.18718962416E+04  0.18725532556E+04  0.00000000000E+00 0. -1.
          3    1    1    2  503    0 -0.85036629088E+02  0.65487846257E+02 -0.78925749001E+03  0.79652198453E+03  0.00000000000E+00 0. -1.
<mgrwt>
<rscale>  0 0.67222345E+02</rscale>
<asrwt>0</asrwt>
<pdfrwt beam="1">  1        2 0.32797702E+00 0.49599955E+02</pdfrwt>
<pdfrwt beam="2">  1        4 0.18224054E+00 0.91105802E+02</pdfrwt>
<totfact> 0.77176280E-01</totfact>
</mgrwt>
</event>
<event>
13    1  0.2101801E-008  0.1375577E+03  0.7546771E-02  0.1351686E+00
          2   -1    0    0  502    0  0.00000000000E+00  0.00000000000E+00  0.13179224993E+04  0.13179224993E+04  0.00000000000E+00 0. -1.
          2   -1    0    0  503    0 -0.00000000000E+00 -0.00000000000E+00 -0.33519166001E+04  0.33519166001E+04  0.00000000000E+00 0. -1.
         24    2    1    2    0    0 -0.59559662022E+02 -0.11671890284E+03 -0.12146035066E+04  0.12242899191E+04  0.80333505625E+02 0.  0.
         25    2    1    2    0    0  0.15355152308E+03  0.34675956811E+02  0.41702483105E+03  0.46294252492E+03  0.12500231777E+03 0.  0.
         24    2    1    2    0    0  0.75797599266E+02  0.53707837199E+02 -0.97460480590E+02  0.15740500174E+03  0.81535154785E+02 0.  0.
        -11    1    3    3    0    0  0.40348352717E+00 -0.13893169203E+01  0.99848766531E+00  0.17578333481E+01  0.00000000000E+00 0.  1.
         12    1    3    3    0    0 -0.59963145549E+02 -0.11532958592E+03 -0.12156019943E+04  0.12225320858E+04  0.00000000000E+00 0. -1.
        -11    1    5    5    0    0  0.82566970395E+02  0.28851218359E+02 -0.98366720433E+02  0.13162715939E+03  0.00000000000E+00 0.  1.
         12    1    5    5    0    0 -0.67693711282E+01  0.24856618840E+02  0.90623984265E+00  0.25777842351E+02  0.00000000000E+00 0. -1.
          5    1    4    4  501    0  0.77937730572E+02  0.65503999238E+02  0.13411039987E+03  0.16844213581E+03  0.47000000000E+01 0. -1.
         -5    1    4    4    0  501  0.75613792503E+02 -0.30828042427E+02  0.28291443118E+03  0.29450038911E+03  0.47000000000E+01 0. -1.
          1    1    1    2  502    0 -0.37210755596E+02 -0.88373707803E+01  0.84029657803E+03  0.84116649868E+03  0.00000000000E+00 0. -1.
          1    1    1    2  503    0 -0.13257870472E+03  0.37172479606E+02 -0.19792515227E+04  0.19840351550E+04  0.00000000000E+00 0. -1.
<mgrwt>
<rscale>  0 0.72532765E+02</rscale>
<asrwt>0</asrwt>
<pdfrwt beam="1">  1        2 0.19381214E+00 0.38245777E+02</pdfrwt>
<pdfrwt beam="2">  1        2 0.49292890E+00 0.13755772E+03</pdfrwt>
<totfact> 0.57819938E+00</totfact>
</mgrwt>
</event>
<event>
13    1  0.2101801E-008  0.1339688E+03  0.7546771E-02  0.1224139E+00
          2   -1    0    0  503    0  0.00000000000E+00  0.00000000000E+00  0.35595645061E+04  0.35595645061E+04  0.00000000000E+00 0. -1.
         -1   -1    0    0    0  501 -0.00000000000E+00 -0.00000000000E+00 -0.85989630565E+03  0.85989630565E+03  0.00000000000E+00 0.  1.
         24    2    1    2    0    0  0.76148257948E+02 -0.89837441785E+01 -0.23771567858E+02  0.11331186672E+03  0.79970162261E+02 0.  0.
         25    2    1    2    0    0 -0.20056020573E+03  0.26578883880E+03  0.77371047079E+03  0.85154025143E+03  0.12499921699E+03 0.  0.
         24    2    1    2    0    0  0.12202121843E+02  0.42881063951E+02  0.38097203274E+01  0.98238098464E+02  0.87455889440E+02 0.  0.
        -11    1    5    5    0    0 -0.32752616971E+02 -0.40692456181E+01  0.39165889102E+01  0.33236009795E+02  0.00000000000E+00 0.  1.
         12    1    5    5    0    0  0.44954738814E+02  0.46950309569E+02 -0.10686858276E+00  0.65002088670E+02  0.00000000000E+00 0. -1.
        -13    1    3    3    0    0  0.36201708765E+01 -0.25410131494E+02 -0.29044318268E+02  0.38760196638E+02  0.00000000000E+00 0.  1.
         14    1    3    3    0    0  0.72528087071E+02  0.16426387315E+02  0.52727504100E+01  0.74551670078E+02  0.00000000000E+00 0. -1.
          5    1    4    4  502    0 -0.17264398781E+03  0.17484008564E+03  0.43425106607E+03  0.49897001960E+03  0.47000000000E+01 0.  1.
         -5    1    4    4    0  502 -0.27916217920E+02  0.90948753161E+02  0.33945940472E+03  0.35257023184E+03  0.47000000000E+01 0.  1.
          1    1    1    2  503    0  0.16308569568E+02 -0.13924899799E+03  0.26368649161E+04  0.26405894870E+04  0.00000000000E+00 0. -1.
         -2    1    1    2    0  501  0.95901256366E+02 -0.16043716059E+03 -0.69094533891E+03  0.71578110818E+03  0.00000000000E+00 0.  1.
<mgrwt>
<rscale>  0 0.13226089E+03</rscale>
<asrwt>0</asrwt>
<pdfrwt beam="1">  1        2 0.52346536E+00 0.13396878E+03</pdfrwt>
<pdfrwt beam="2">  1       -1 0.12645534E+00 0.13057477E+03</pdfrwt>
<totfact> 0.93139375E-01</totfact>
</mgrwt>
</event>
<event>
13    1  0.2101801E-008  0.2237811E+03  0.7546771E-02  0.1311824E+00
          2   -1    0    0  502    0  0.00000000000E+00  0.00000000000E+00  0.16004350409E+04  0.16004350409E+04  0.00000000000E+00 0. -1.
          2   -1    0    0  503    0 -0.00000000000E+00 -0.00000000000E+00 -0.51863274338E+03  0.51863274338E+03  0.00000000000E+00 0. -1.
         24    2    1    2    0    0 -0.87977116601E+02  0.10353242859E+02  0.13124485298E+02  0.12109134289E+03  0.81508886168E+02 0.  0.
         25    2    1    2    0    0 -0.53624725854E+02 -0.12380352120E+03  0.17619720911E+03  0.25470470807E+03  0.12500443483E+03 0.  0.
         24    2    1    2    0    0 -0.38166000442E+02 -0.76742473217E+02  0.77214013788E+02  0.14166942770E+03  0.82232426896E+02 0.  0.
        -11    1    3    3    0    0  0.94006990455E+00  0.88555036074E+01 -0.23336023047E+02  0.24977462786E+02  0.00000000000E+00 0.  1.
         12    1    3    3    0    0 -0.88917186505E+02  0.14977392521E+01  0.36460508345E+02  0.96113880099E+02  0.00000000000E+00 0. -1.
        -11    1    5    5    0    0 -0.51776582233E+02 -0.87170843884E+02  0.69127832890E+02  0.12271197077E+03  0.00000000000E+00 0.  1.
         12    1    5    5    0    0  0.13610581790E+02  0.10428370667E+02  0.80861808984E+01  0.18957456922E+02  0.00000000000E+00 0. -1.
          5    1    4    4  501    0 -0.40500882571E+02  0.98877625001E+01  0.76861031914E+02  0.87565961213E+02  0.47000000000E+01 0. -1.
         -5    1    4    4    0  501 -0.13123843284E+02 -0.13369128370E+03  0.99336177198E+02  0.16713874685E+03  0.47000000000E+01 0. -1.
          1    1    1    2  502    0 -0.33234502959E+01  0.33188684837E+02  0.11711849293E+04  0.11716597939E+04  0.00000000000E+00 0. -1.
          1    1    1    2  503    0  0.18309129319E+03  0.15700406672E+03 -0.35591833999E+03  0.42994251168E+03  0.00000000000E+00 0. -1.
<mgrwt>
<rscale>  0 0.86395292E+02</rscale>
<asrwt>0</asrwt>
<pdfrwt beam="1">  1        2 0.23535809E+00 0.33354672E+02</pdfrwt>
<pdfrwt beam="2">  1        2 0.76269522E-01 0.22378114E+03</pdfrwt>
<totfact> 0.15421468E+02</totfact>
</mgrwt>
</event>
<event>
13    1  0.2101801E-008  0.1990931E+03  0.7546771E-02  0.1223779E+00
          2   -1    0    0  503    0  0.00000000000E+00  0.00000000000E+00  0.87134599315E+03  0.87134599315E+03  0.00000000000E+00 0. -1.
          2   -1    0    0  502    0 -0.00000000000E+00 -0.00000000000E+00 -0.26551056428E+04  0.26551056428E+04  0.00000000000E+00 0. -1.
         24    2    1    2    0    0 -0.29996807840E+02  0.26984750052E+02 -0.72713650781E+03  0.73265254353E+03  0.80151502437E+02 0.  0.
         25    2    1    2    0    0  0.77668595628E+02  0.38341628114E+03 -0.64162139623E+03  0.76180220678E+03  0.12499652300E+03 0.  0.
         24    2    1    2    0    0  0.35340310605E+02 -0.13903464327E+03 -0.12263321330E+03  0.20510073490E+03  0.80298423828E+02 0.  0.
        -11    1    5    5    0    0  0.26209605056E+02 -0.16495928608E+02 -0.59210099808E+02  0.66819869628E+02  0.00000000000E+00 0.  1.
         12    1    5    5    0    0  0.91307055491E+01 -0.12253871467E+03 -0.63423113488E+02  0.13828086527E+03  0.00000000000E+00 0. -1.
        -13    1    3    3    0    0 -0.17476218852E+02  0.54198405487E+02 -0.55655247152E+03  0.55945825486E+03  0.00000000000E+00 0.  1.
         14    1    3    3    0    0 -0.12520588988E+02 -0.27213655435E+02 -0.17058403629E+03  0.17319428867E+03  0.00000000000E+00 0. -1.
          5    1    4    4  501    0  0.64025429216E+02  0.25502352313E+03 -0.52749251282E+03  0.58941215971E+03  0.47000000000E+01 0. -1.
         -5    1    4    4    0  501  0.13643166411E+02  0.12839275801E+03 -0.11412888342E+03  0.17239004707E+03  0.47000000000E+01 0. -1.
          1    1    1    2  502    0 -0.22000055024E+02 -0.85405317587E+02 -0.10452643381E+04  0.10489783636E+04  0.00000000000E+00 0. -1.
          1    1    1    2  503    0 -0.61012043369E+02 -0.18596107033E+03  0.75289580583E+03  0.77791778714E+03  0.00000000000E+00 0. -1.
<mgrwt>
<rscale>  0 0.13250920E+03</rscale>
<asrwt>0</asrwt>
<pdfrwt beam="1">  1        2 0.12813912E+00 0.19909306E+03</pdfrwt>
<pdfrwt beam="2">  1        2 0.39045671E+00 0.88193371E+02</pdfrwt>
<totfact> 0.23623500E+01</totfact>
</mgrwt>
</event>
<event>
13    1  0.2101801E-008  0.1750532E+03  0.7546771E-02  0.1218412E+00
          2   -1    0    0  503    0  0.00000000000E+00  0.00000000000E+00  0.38269677603E+04  0.38269677603E+04  0.00000000000E+00 0. -1.
          2   -1    0    0  502    0 -0.00000000000E+00 -0.00000000000E+00 -0.19849620816E+04  0.19849620816E+04  0.00000000000E+00 0. -1.
         24    2    1    2    0    0 -0.23824269336E+02 -0.36939525833E+02 -0.32723853570E+02  0.98738119711E+02  0.82135505802E+02 0.  0.
         25    2    1    2    0    0 -0.22176214238E+03  0.30805942282E+03  0.67274289465E+03  0.78248734474E+03  0.12499754631E+03 0.  0.
         24    2    1    2    0    0 -0.37364069889E+02 -0.72972026275E+02  0.61908984111E+03  0.62920667996E+03  0.76862373092E+02 0.  0.
        -13    1    3    3    0    0 -0.53902034244E+02 -0.29381341286E+02 -0.27584554679E+02  0.67302304331E+02  0.00000000000E+00 0.  1.
         14    1    3    3    0    0  0.30077764908E+02 -0.75581845467E+01 -0.51392988908E+01  0.31435815380E+02  0.00000000000E+00 0. -1.
        -13    1    5    5    0    0  0.55296274680E+01  0.12774368261E+02  0.43108224192E+02  0.45299892466E+02  0.00000000000E+00 0.  1.
         14    1    5    5    0    0 -0.42893697357E+02 -0.85746394536E+02  0.57598161692E+03  0.58390678749E+03  0.00000000000E+00 0. -1.
          5    1    4    4  501    0 -0.61453684273E+02  0.13922694266E+03  0.37330059341E+03  0.40315768616E+03  0.47000000000E+01 0.  1.
         -5    1    4    4    0  501 -0.16030845811E+03  0.16883248016E+03  0.29944230124E+03  0.37932965857E+03  0.47000000000E+01 0.  1.
          1    1    1    2  502    0  0.11143220505E+03 -0.46359080353E+02 -0.18519618817E+04  0.18558903825E+04  0.00000000000E+00 0. -1.
          1    1    1    2  503    0  0.17151827656E+03 -0.15178879036E+03  0.24348586783E+04  0.24456073150E+04  0.00000000000E+00 0. -1.
<mgrwt>
<rscale>  0 0.13628832E+03</rscale>
<asrwt>0</asrwt>
<pdfrwt beam="1">  1        2 0.56278938E+00 0.17505324E+03</pdfrwt>
<pdfrwt beam="2">  1        2 0.29190619E+00 0.10610775E+03</pdfrwt>
<totfact> 0.12429342E+00</totfact>
</mgrwt>
</event>
<event>
13    1  0.2101801E-008  0.1398453E+03  0.7546771E-02  0.1325807E+00
          2   -1    0    0  502    0  0.00000000000E+00  0.00000000000E+00  0.15238214570E+04  0.15238214570E+04  0.00000000000E+00 0. -1.
          2   -1    0    0  503    0 -0.00000000000E+00 -0.00000000000E+00 -0.20768015765E+04  0.20768015765E+04  0.00000000000E+00 0. -1.
         24    2    1    2    0    0  0.37491880587E+02 -0.18458778575E+03 -0.25828958935E+03  0.32950660783E+03  0.79892433189E+02 0.  0.
         25    2    1    2    0    0  0.16217434008E+03 -0.25833785163E+02  0.23897762957E+03  0.31573764090E+03  0.12494818690E+03 0.  0.
         24    2    1    2    0    0  0.18601787712E+02  0.36998903381E+02 -0.25170867916E+03  0.26731257908E+03  0.79898751008E+02 0.  0.
        -11    1    3    3    0    0 -0.93445275964E+01 -0.12523258289E+02  0.15609389345E-01  0.15625378006E+02  0.00000000000E+00 0.  1.
         12    1    3    3    0    0  0.46836408184E+02 -0.17206452746E+03 -0.25830519874E+03  0.31388122983E+03  0.00000000000E+00 0. -1.
        -13    1    5    5    0    0  0.48302299922E+02  0.10757301033E+02 -0.12102058047E+03  0.13074713228E+03  0.00000000000E+00 0.  1.
         14    1    5    5    0    0 -0.29700512210E+02  0.26241602348E+02 -0.13068809870E+03  0.13656544680E+03  0.00000000000E+00 0. -1.
          5    1    4    4  501    0  0.16466881433E+03 -0.53379469151E+02  0.17657007449E+03  0.24731410665E+03  0.47000000000E+01 0.  1.
         -5    1    4    4    0  501 -0.24944742564E+01  0.27545683988E+02  0.62407555078E+02  0.68423534248E+02  0.47000000000E+01 0.  1.
          1    1    1    2  502    0 -0.23602880806E+02  0.40753385501E+02  0.11932433128E+04  0.11941723234E+04  0.00000000000E+00 0. -1.
          1    1    1    2  503    0 -0.19466512757E+03  0.13266928203E+03 -0.14752027933E+04  0.14938938823E+04  0.00000000000E+00 0. -1.
<mgrwt>
<rscale>  0 0.81154224E+02</rscale>
<asrwt>0</asrwt>
<pdfrwt beam="1">  1        2 0.22409139E+00 0.47094951E+02</pdfrwt>
<pdfrwt beam="2">  1        2 0.30541200E+00 0.13984531E+03</pdfrwt>
<totfact> 0.20962719E+01</totfact>
</mgrwt>
</event>
<event>
13    1  0.2101801E-008  0.1457124E+03  0.7546771E-02  0.1280420E+00
          2   -1    0    0  502    0  0.00000000000E+00  0.00000000000E+00  0.21012289673E+04  0.21012289673E+04  0.00000000000E+00 0. -1.
          2   -1    0    0  503    0 -0.00000000000E+00 -0.00000000000E+00 -0.15878189575E+04  0.15878189575E+04  0.00000000000E+00 0. -1.
         24    2    1    2    0    0 -0.82461564702E+02 -0.37779560835E+01 -0.69991889545E+03  0.70924025753E+03  0.79505346318E+02 0.  0.
         25    2    1    2    0    0  0.37205570154E+02  0.24447106572E+01  0.63436793870E+03  0.64763956640E+03  0.12499638097E+03 0.  0.
         24    2    1    2    0    0  0.77560733080E+02  0.63368983652E+02 -0.93018644298E+02  0.15782581274E+03  0.78900086029E+02 0.  0.
        -11    1    3    3    0    0  0.14348246970E+02  0.30341433306E+01 -0.49698274547E+02  0.51816953884E+02  0.00000000000E+00 0.  1.
         12    1    3    3    0    0 -0.96809811672E+02 -0.68120994140E+01 -0.65022062090E+03  0.65742330365E+03  0.00000000000E+00 0. -1.
        -13    1    5    5    0    0  0.69827363740E+02  0.80723169571E+02 -0.68566346654E+02  0.12685990196E+03  0.00000000000E+00 0.  1.
         14    1    5    5    0    0  0.77333693408E+01 -0.17354185919E+02 -0.24452297644E+02  0.30965910779E+02  0.00000000000E+00 0. -1.
          5    1    4    4  501    0  0.29917379501E+01 -0.61049269871E+00  0.59561543833E+03  0.59564180812E+03  0.47000000000E+01 0.  1.
         -5    1    4    4    0  501  0.34213832204E+02  0.30552033559E+01  0.38752500369E+02  0.51997758283E+02  0.47000000000E+01 0.  1.
          1    1    1    2  502    0  0.58672955729E+02  0.35443993887E+02  0.14164084555E+04  0.14180661851E+04  0.00000000000E+00 0. -1.
          1    1    1    2  503    0 -0.90977694261E+02 -0.97479732113E+02 -0.74442884477E+03  0.75627610299E+03  0.00000000000E+00 0. -1.
<mgrwt>
<rscale>  0 0.99941255E+02</rscale>
<asrwt>0</asrwt>
<pdfrwt beam="1">  1        2 0.30900426E+00 0.68547738E+02</pdfrwt>
<pdfrwt beam="2">  1        2 0.23350279E+00 0.14571238E+03</pdfrwt>
<totfact> 0.18710672E+01</totfact>
</mgrwt>
</event>
<event>
13    1  0.2101801E-008  0.4690622E+02  0.7546771E-02  0.1463801E+00
          2   -1    0    0  503    0  0.00000000000E+00  0.00000000000E+00  0.18494029857E+04  0.18494029857E+04  0.00000000000E+00 0. -1.
          2   -1    0    0  502    0 -0.00000000000E+00 -0.00000000000E+00 -0.27472559464E+04  0.27472559464E+04  0.00000000000E+00 0. -1.
         24    2    1    2    0    0  0.79220113459E+02  0.83560850841E+01 -0.10873264007E+04  0.10932874356E+04  0.81566320887E+02 0.  0.
         25    2    1    2    0    0 -0.91517175397E+02  0.15113975969E+02  0.43745775646E+03  0.46432627630E+03  0.12500310602E+03 0.  0.
         24    2    1    2    0    0 -0.73820282570E+02 -0.75515160124E+01 -0.42476633903E+03  0.43826016404E+03  0.78352211874E+02 0.  0.
        -11    1    5    5    0    0 -0.63896356282E+02  0.28447348607E+02 -0.25363203342E+03  0.26309922913E+03  0.00000000000E+00 0.  1.
         12    1    5    5    0    0 -0.99239262879E+01 -0.35998864619E+02 -0.17113430560E+03  0.17516093492E+03  0.00000000000E+00 0. -1.
        -11    1    3    3    0    0  0.41240558445E+01 -0.20425732726E+02 -0.77144304228E+02  0.79909086272E+02  0.00000000000E+00 0.  1.
         12    1    3    3    0    0  0.75096057615E+02  0.28781817810E+02 -0.10101820965E+04  0.10133783494E+04  0.00000000000E+00 0. -1.
          5    1    4    4  501    0 -0.30408530515E+02  0.43251732158E+02  0.56802697586E+02  0.77743343868E+02  0.47000000000E+01 0. -1.
         -5    1    4    4    0  501 -0.61108644882E+02 -0.28137756189E+02  0.38065505887E+03  0.38658293243E+03  0.47000000000E+01 0. -1.
          1    1    1    2  502    0  0.40262185695E+02 -0.23997883129E+02 -0.12111578148E+04  0.12120644349E+04  0.00000000000E+00 0. -1.
          1    1    1    2  503    0  0.45855158812E+02  0.80793380886E+01  0.13879398374E+04  0.13887206211E+04  0.00000000000E+00 0. -1.
<mgrwt>
<rscale>  0 0.46733530E+02</rscale>
<asrwt>0</asrwt>
<pdfrwt beam="1">  1        2 0.27197103E+00 0.46561479E+02</pdfrwt>
<pdfrwt beam="2">  1        2 0.40400822E+00 0.46906216E+02</pdfrwt>
<totfact> 0.79928914E+00</totfact>
</mgrwt>
</event>
<event>
13    1  0.2101801E-008  0.6310971E+02  0.7546771E-02  0.1417262E+00
          2   -1    0    0  503    0  0.00000000000E+00  0.00000000000E+00  0.18809563320E+04  0.18809563320E+04  0.00000000000E+00 0. -1.
          2   -1    0    0  502    0 -0.00000000000E+00 -0.00000000000E+00 -0.58460157881E+03  0.58460157881E+03  0.00000000000E+00 0. -1.
         24    2    1    2    0    0  0.46262726654E+02  0.54611599856E+02  0.39188149328E+03  0.40619006630E+03  0.79351108800E+02 0.  0.
         25    2    1    2    0    0 -0.11432257562E+03  0.18034435010E+02  0.42419509123E+03  0.45712290434E+03  0.12499992844E+03 0.  0.
         24    2    1    2    0    0  0.49615787346E+02 -0.52104826326E+02  0.51383982280E+03  0.52496524689E+03  0.79878080029E+02 0.  0.
        -11    1    3    3    0    0  0.28956324334E+02  0.68185843426E+02  0.35944655018E+03  0.36700081798E+03  0.00000000000E+00 0.  1.
         12    1    3    3    0    0  0.17306402320E+02 -0.13574243570E+02  0.32434943102E+02  0.39189248319E+02  0.00000000000E+00 0. -1.
        -13    1    5    5    0    0  0.29798024366E+02 -0.71868378921E+02  0.33268404760E+03  0.34166015523E+03  0.00000000000E+00 0.  1.
         14    1    5    5    0    0  0.19817762980E+02  0.19763552595E+02  0.18115577520E+03  0.18330509166E+03  0.00000000000E+00 0. -1.
          5    1    4    4  501    0 -0.86168113451E+02  0.69519246439E+02  0.25724540745E+03  0.28009848100E+03  0.47000000000E+01 0. -1.
         -5    1    4    4    0  501 -0.28154462173E+02 -0.51484811429E+02  0.16694968377E+03  0.17702442334E+03  0.47000000000E+01 0. -1.
          1    1    1    2  502    0 -0.62411791424E+01 -0.62859543287E+02 -0.55246706313E+03  0.55606665998E+03  0.00000000000E+00 0. -1.
          1    1    1    2  503    0  0.24685240766E+02  0.42318334748E+02  0.51890540901E+03  0.52121303329E+03  0.00000000000E+00 0. -1.
<mgrwt>
<rscale>  0 0.55604515E+02</rscale>
<asrwt>0</asrwt>
<pdfrwt beam="1">  1        2 0.27661122E+00 0.48991862E+02</pdfrwt>
<pdfrwt beam="2">  1        2 0.85970821E-01 0.63109707E+02</pdfrwt>
<totfact> 0.98611465E+01</totfact>
</mgrwt>
</event>
<event>
13    1  0.2101801E-008  0.1491148E+03  0.7546771E-02  0.1234686E+00
          2   -1    0    0  503    0  0.00000000000E+00  0.00000000000E+00  0.72886870706E+03  0.72886870706E+03  0.00000000000E+00 0. -1.
         -1   -1    0    0    0  501 -0.00000000000E+00 -0.00000000000E+00 -0.11039362111E+04  0.11039362111E+04  0.00000000000E+00 0.  1.
         24    2    1    2    0    0  0.71654067082E+02 -0.61808999566E+02 -0.13808542654E+03  0.18516753032E+03  0.79150309561E+02 0.  0.
         25    2    1    2    0    0  0.10421269562E+03  0.21166262953E+02 -0.30390128049E+03  0.34538282880E+03  0.12500005411E+03 0.  0.
         24    2    1    2    0    0  0.76086451642E+02  0.87455291881E+02  0.17487472611E+02  0.14298114906E+03  0.81854878205E+02 0.  0.
        -13    1    3    3    0    0  0.49358827622E+02 -0.78481054020E+02 -0.87792838463E+02  0.12768379768E+03  0.00000000000E+00 0.  1.
         14    1    3    3    0    0  0.22295239460E+02  0.16672054454E+02 -0.50292588079E+02  0.57483732638E+02  0.00000000000E+00 0. -1.
        -13    1    5    5    0    0  0.61242233352E+02  0.13310318075E+02  0.23942897876E+02  0.67089776210E+02  0.00000000000E+00 0.  1.
         14    1    5    5    0    0  0.14844218290E+02  0.74144973806E+02 -0.64554252646E+01  0.75891372848E+02  0.00000000000E+00 0. -1.
          5    1    4    4  502    0  0.78000838585E+02 -0.19056158608E+01 -0.29990331857E+03  0.30992233330E+03  0.47000000000E+01 0.  1.
         -5    1    4    4    0  502  0.26211857036E+02  0.23071878814E+02 -0.39979619261E+01  0.35460495497E+02  0.47000000000E+01 0.  1.
          1    1    1    2  503    0 -0.12105902043E+03 -0.89679859835E+02  0.58613025605E+03  0.60518298121E+03  0.00000000000E+00 0. -1.
         -2    1    1    2    0  501 -0.13089419391E+03  0.42867304566E+02 -0.53669852566E+03  0.55409042876E+03  0.00000000000E+00 0.  1.
<mgrwt>
<rscale>  0 0.12524535E+03</rscale>
<asrwt>0</asrwt>
<pdfrwt beam="1">  1        2 0.10718658E+00 0.14911477E+03</pdfrwt>
<pdfrwt beam="2">  1       -1 0.16234356E+00 0.10519681E+03</pdfrwt>
<totfact> 0.16214031E+01</totfact>
</mgrwt>
</event>
<event>
13    1  0.2101801E-008  0.8986667E+02  0.7546771E-02  0.1327198E+00
          2   -1    0    0  503    0  0.00000000000E+00  0.00000000000E+00  0.16343983255E+04  0.16343983255E+04  0.00000000000E+00 0. -1.
          2   -1    0    0  502    0 -0.00000000000E+00 -0.00000000000E+00 -0.33332698163E+04  0.33332698163E+04  0.00000000000E+00 0. -1.
         24    2    1    2    0    0  0.52903996842E+02  0.62868825443E+02 -0.43537820594E+02  0.12333069767E+03  0.81016029710E+02 0.  0.
         25    2    1    2    0    0  0.19364917682E+03  0.50512439223E+02  0.39748813321E+03  0.46224765328E+03  0.12499826686E+03 0.  0.
         24    2    1    2    0    0 -0.12010633276E+03 -0.26159616783E+02  0.64648155736E+02  0.15840926358E+03  0.76185654995E+02 0.  0.
        -11    1    5    5    0    0 -0.92000582269E+01 -0.11337114877E+02 -0.15101241463E+02  0.21005207422E+02  0.00000000000E+00 0.  1.
         12    1    5    5    0    0 -0.11090627454E+03 -0.14822501906E+02  0.79749397199E+02  0.13740405616E+03  0.00000000000E+00 0. -1.
        -13    1    3    3    0    0  0.41580901251E+02  0.82408906197E+02 -0.30288495214E+02  0.97147270223E+02  0.00000000000E+00 0.  1.
         14    1    3    3    0    0  0.11323095591E+02 -0.19540080753E+02 -0.13249325380E+02  0.26183427442E+02  0.00000000000E+00 0. -1.
          5    1    4    4  501    0  0.28630720387E+02  0.19119870172E+02  0.19975125217E+03  0.20275093176E+03  0.47000000000E+01 0. -1.
         -5    1    4    4    0  501  0.16501845644E+03  0.31392569052E+02  0.19773688104E+03  0.25949672152E+03  0.47000000000E+01 0. -1.
          1    1    1    2  502    0 -0.41798645938E+02 -0.59103739263E+02 -0.31682723666E+04  0.31690992676E+04  0.00000000000E+00 0. -1.
          1    1    1    2  503    0 -0.84648194964E+02 -0.28117908621E+02  0.10508024075E+04  0.10545812597E+04  0.00000000000E+00 0. -1.
<mgrwt>
<rscale>  0 0.80656614E+02</rscale>
<asrwt>0</asrwt>
<pdfrwt beam="1">  1        2 0.24035270E+00 0.89866666E+02</pdfrwt>
<pdfrwt beam="2">  1        2 0.49018673E+00 0.72390461E+02</pdfrwt>
<totfact> 0.43420204E+00</totfact>
</mgrwt>
</event>
<event>
13    1  0.2101801E-008  0.1635100E+03  0.7546771E-02  0.1366449E+00
          4   -1    0    0  503    0 -0.00000000000E+00  0.00000000000E+00  0.12776240599E+03  0.12776240599E+03  0.00000000000E+00 0. -1.
          2   -1    0    0  502    0  0.00000000000E+00 -0.00000000000E+00 -0.32262491212E+04  0.32262491212E+04  0.00000000000E+00 0. -1.
         24    2    1    2    0    0  0.13373754643E+03 -0.27390433539E+02  0.35936555645E+02  0.16599780490E+03  0.87337666701E+02 0.  0.
         25    2    1    2    0    0  0.88301706652E+02  0.91298770671E+01 -0.17331170938E+04  0.17398850859E+04  0.12499882135E+03 0.  0.
         24    2    1    2    0    0 -0.70189548195E+02  0.40000906429E+02 -0.50664163867E+03  0.51959817804E+03  0.82279228205E+02 0.  0.
        -11    1    5    5    0    0 -0.80530028471E+02  0.34235600597E+02 -0.49606173271E+03  0.50372056192E+03  0.00000000000E+00 0.  1.
         12    1    5    5    0    0  0.10340480275E+02  0.57653058324E+01 -0.10579905958E+02  0.15877616123E+02  0.00000000000E+00 0. -1.
        -13    1    3    3    0    0  0.64737237362E+01 -0.14451314433E+01  0.35501090841E+02  0.36115439286E+02  0.00000000000E+00 0.  1.
         14    1    3    3    0    0  0.12726382269E+03 -0.25945302096E+02  0.43546480382E+00  0.12988236561E+03  0.00000000000E+00 0. -1.
          5    1    4    4  501    0 -0.20410013644E+02  0.35123759195E+02 -0.40182806572E+03  0.40390361662E+03  0.47000000000E+01 0. -1.
         -5    1    4    4    0  501  0.10871172030E+03 -0.25993882128E+02 -0.13312890280E+04  0.13359814693E+04  0.47000000000E+01 0. -1.
          1    1    1    2  502    0  0.74755219333E+01  0.27415632980E+02 -0.49051593036E+03  0.49133835418E+03  0.00000000000E+00 0. -1.
          3    1    1    2  503    0 -0.15932522682E+03 -0.49155982937E+02 -0.40414860807E+03  0.43719210419E+03  0.00000000000E+00 0. -1.
<mgrwt>
<rscale>  0 0.68164438E+02</rscale>
<asrwt>0</asrwt>
<pdfrwt beam="2">  1        2 0.47444840E+00 0.28416551E+02</pdfrwt>
<pdfrwt beam="1">  1        4 0.18788589E-01 0.16351002E+03</pdfrwt>
<totfact> 0.35728893E+01</totfact>
</mgrwt>
</event>
<event>
13    1  0.2101801E-008  0.1126534E+03  0.7546771E-02  0.1345764E+00
          2   -1    0    0  503    0  0.00000000000E+00  0.00000000000E+00  0.17238371237E+04  0.17238371237E+04  0.00000000000E+00 0. -1.
          2   -1    0    0  502    0 -0.00000000000E+00 -0.00000000000E+00 -0.20285798452E+04  0.20285798452E+04  0.00000000000E+00 0. -1.
         24    2    1    2    0    0 -0.76042089062E+01 -0.12037926119E+03 -0.93710438785E+02  0.17258773117E+03  0.80348541355E+02 0.  0.
         25    2    1    2    0    0 -0.15131823370E+03  0.29415572897E+02  0.10611876396E+04  0.10795858083E+04  0.12499530932E+03 0.  0.
         24    2    1    2    0    0  0.35254192998E+02  0.30916217011E+02 -0.15238377881E+02  0.93879476768E+02  0.79890408683E+02 0.  0.
        -11    1    3    3    0    0 -0.87967118114E+01 -0.26066794458E+01 -0.43663531227E+02  0.44617046918E+02  0.00000000000E+00 0.  1.
         12    1    3    3    0    0  0.11925029052E+01 -0.11777258174E+03 -0.50046907558E+02  0.12797068426E+03  0.00000000000E+00 0. -1.
        -13    1    5    5    0    0  0.57988447743E+01 -0.22640796405E+02  0.12783914529E+02  0.26639458201E+02  0.00000000000E+00 0.  1.
         14    1    5    5    0    0  0.29455348224E+02  0.53557013416E+02 -0.28022292410E+02  0.67240018567E+02  0.00000000000E+00 0. -1.
          5    1    4    4  501    0 -0.56614034767E+02 -0.49159137625E+02  0.37953039056E+03  0.38689427122E+03  0.47000000000E+01 0. -1.
         -5    1    4    4    0  501 -0.94704198928E+02  0.78574710522E+02  0.68165724903E+03  0.69269153711E+03  0.47000000000E+01 0. -1.
          1    1    1    2  502    0  0.78898536634E+02  0.80271218830E+02 -0.18288896656E+04  0.18323498183E+04  0.00000000000E+00 0. -1.
          1    1    1    2  503    0  0.44769712969E+02 -0.20223747552E+02  0.57190812121E+03  0.57401413420E+03  0.00000000000E+00 0. -1.
<mgrwt>
<rscale>  0 0.74391996E+02</rscale>
<asrwt>0</asrwt>
<pdfrwt beam="1">  1        2 0.25350546E+00 0.49125626E+02</pdfrwt>
<pdfrwt beam="2">  1        2 0.29832057E+00 0.11265340E+03</pdfrwt>
<totfact> 0.18155913E+01</totfact>
</mgrwt>
</event>
<event>
13    1  0.2101801E-008  0.8144550E+02  0.7546771E-02  0.1347609E+00
          2   -1    0    0  502    0  0.00000000000E+00  0.00000000000E+00  0.62923419318E+03  0.62923419318E+03  0.00000000000E+00 0. -1.
          2   -1    0    0  503    0 -0.00000000000E+00 -0.00000000000E+00 -0.21384599192E+04  0.21384599192E+04  0.00000000000E+00 0. -1.
         24    2    1    2    0    0  0.10540420239E+03 -0.55722548906E+02 -0.81164555965E+02  0.16574531166E+03  0.81662567023E+02 0.  0.
         25    2    1    2    0    0 -0.13958274431E+02  0.11934912723E+02  0.23965722826E+03  0.27091993621E+03  0.12499899685E+03 0.  0.
         24    2    1    2    0    0 -0.26551715106E+02 -0.23425849248E+02 -0.44911234975E+03  0.45698453189E+03  0.76675913438E+02 0.  0.
        -11    1    3    3    0    0 -0.10571629321E+02 -0.49044877683E+01 -0.24283064883E+02  0.26934746832E+02  0.00000000000E+00 0.  1.
         12    1    3    3    0    0  0.11597583171E+03 -0.50818061138E+02 -0.56881491082E+02  0.13881056483E+03  0.00000000000E+00 0. -1.
        -13    1    5    5    0    0 -0.49732256540E+02 -0.25405541715E+02 -0.37951020923E+03  0.38359710348E+03  0.00000000000E+00 0.  1.
         14    1    5    5    0    0  0.23180541434E+02  0.19796924671E+01 -0.69602140525E+02  0.73387428413E+02  0.00000000000E+00 0. -1.
          5    1    4    4  501    0  0.11189759039E+02  0.16379466505E+02  0.24377750435E+03  0.24462841057E+03  0.47000000000E+01 0.  1.
         -5    1    4    4    0  501 -0.25148033470E+02 -0.44445537816E+01 -0.41202760892E+01  0.26291525646E+02  0.47000000000E+01 0.  1.
          1    1    1    2  502    0 -0.65339991239E+02 -0.14282529468E+02  0.32321925921E+03  0.33006665180E+03  0.00000000000E+00 0. -1.
          1    1    1    2  503    0  0.44577838262E+00  0.81496014899E+02 -0.15418253078E+04  0.15439776808E+04  0.00000000000E+00 0. -1.
<mgrwt>
<rscale>  0 0.73805830E+02</rscale>
<asrwt>0</asrwt>
<pdfrwt beam="1">  1        2 0.92534441E-01 0.66882771E+02</pdfrwt>
<pdfrwt beam="2">  1        2 0.31447940E+00 0.81445498E+02</pdfrwt>
<totfact> 0.64994809E+01</totfact>
</mgrwt>
</event>
<event>
13    1  0.2101801E-008  0.2020128E+03  0.7546771E-02  0.1298794E+00
          2   -1    0    0  503    0  0.00000000000E+00  0.00000000000E+00  0.16617972384E+04  0.16617972384E+04  0.00000000000E+00 0. -1.
          2   -1    0    0  502    0 -0.00000000000E+00 -0.00000000000E+00 -0.34816993661E+04  0.34816993661E+04  0.00000000000E+00 0. -1.
         24    2    1    2    0    0  0.23973963975E+03 -0.15080172678E+03  0.81400004638E+03  0.86540364450E+03  0.78173759849E+02 0.  0.
         25    2    1    2    0    0 -0.26442331542E+03  0.32323920496E+03 -0.24211287823E+03  0.49864314535E+03  0.12499226872E+03 0.  0.
         24    2    1    2    0    0  0.13905884652E+01  0.49317542781E+02 -0.12362702315E+01  0.95411713439E+02  0.81656064900E+02 0.  0.
        -11    1    3    3    0    0  0.87211535110E+01  0.55591766098E+01  0.71234300898E+02  0.71981168284E+02  0.00000000000E+00 0.  1.
         12    1    3    3    0    0  0.23101848624E+03 -0.15636090339E+03  0.74276574549E+03  0.79342247621E+03  0.00000000000E+00 0. -1.
        -13    1    5    5    0    0 -0.39709803122E+02  0.21558619299E+02  0.48465397639E+01  0.45443717692E+02  0.00000000000E+00 0.  1.
         14    1    5    5    0    0  0.41100391587E+02  0.27758923483E+02 -0.60828099953E+01  0.49967995747E+02  0.00000000000E+00 0. -1.
          5    1    4    4  501    0 -0.27405274387E+03  0.31373094116E+03 -0.24598911854E+03  0.48380238352E+03  0.47000000000E+01 0.  1.
         -5    1    4    4    0  501  0.96294284491E+01  0.95082638044E+01  0.38762403055E+01  0.14840761831E+02  0.47000000000E+01 0.  1.
          1    1    1    2  502    0  0.37064756041E+02 -0.18937851658E+02 -0.30211745927E+04  0.30214612951E+04  0.00000000000E+00 0. -1.
          1    1    1    2  503    0 -0.13771668833E+02 -0.20281716931E+03  0.63062156707E+03  0.66257680602E+03  0.00000000000E+00 0. -1.
<mgrwt>
<rscale>  0 0.91696741E+02</rscale>
<asrwt>0</asrwt>
<pdfrwt beam="1">  1        2 0.24438195E+00 0.20201281E+03</pdfrwt>
<pdfrwt beam="2">  1        2 0.51201461E+00 0.41622570E+02</pdfrwt>
<totfact> 0.36084369E+00</totfact>
</mgrwt>
</event>
<event>
13    1  0.2101801E-008  0.9204532E+02  0.7546771E-02  0.1320189E+00
          2   -1    0    0  502    0  0.00000000000E+00  0.00000000000E+00  0.17119088687E+04  0.17119088687E+04  0.00000000000E+00 0. -1.
          2   -1    0    0  503    0 -0.00000000000E+00 -0.00000000000E+00 -0.13237736862E+04  0.13237736862E+04  0.00000000000E+00 0. -1.
         24    2    1    2    0    0 -0.24139555475E+02 -0.14557575419E+03 -0.49926134689E+03  0.52683106413E+03  0.80709722397E+02 0.  0.
         25    2    1    2    0    0 -0.54957612331E+01  0.82585476435E+02  0.13461627537E+03  0.20148558096E+03  0.12499733369E+03 0.  0.
         24    2    1    2    0    0  0.67498862730E+02  0.90097720877E+01 -0.64928785329E+01  0.10583572850E+03  0.80757485669E+02 0.  0.
        -13    1    5    5    0    0  0.85186976561E+02  0.14703755840E+02 -0.96638017829E+01  0.86985116407E+02  0.00000000000E+00 0.  1.
         14    1    5    5    0    0 -0.17688113831E+02 -0.56939837526E+01  0.31709232500E+01  0.18850612089E+02  0.00000000000E+00 0. -1.
        -13    1    3    3    0    0 -0.38592524932E+02 -0.92396667850E+02 -0.40897928894E+03  0.42105888661E+03  0.00000000000E+00 0.  1.
         14    1    3    3    0    0  0.14452969456E+02 -0.53179086342E+02 -0.90282057945E+02  0.10577217752E+03  0.00000000000E+00 0. -1.
          5    1    4    4  501    0 -0.61241450788E+02  0.22597788809E+02  0.41980247658E+02  0.77753498617E+02  0.47000000000E+01 0. -1.
         -5    1    4    4    0  501  0.55745689555E+02  0.59987687626E+02  0.92636027710E+02  0.12373208234E+03  0.47000000000E+01 0. -1.
          1    1    1    2  502    0  0.54826003075E+02  0.51495859221E+02  0.14764597486E+04  0.14783744801E+04  0.00000000000E+00 0. -1.
          1    1    1    2  503    0 -0.92689549096E+02  0.24846464491E+01 -0.71718661610E+03  0.72315570128E+03  0.00000000000E+00 0. -1.
<mgrwt>
<rscale>  0 0.83207236E+02</rscale>
<asrwt>0</asrwt>
<pdfrwt beam="1">  1        2 0.25175130E+00 0.75217778E+02</pdfrwt>
<pdfrwt beam="2">  1        2 0.19467260E+00 0.92045316E+02</pdfrwt>
<totfact> 0.39811884E+01</totfact>
</mgrwt>
</event>
<event>
13    1  0.2101801E-008  0.1182638E+03  0.7546771E-02  0.1437799E+00
         -1   -1    0    0    0  501 -0.00000000000E+00  0.00000000000E+00  0.85604441641E+03  0.85604441641E+03  0.00000000000E+00 0.  1.
          2   -1    0    0  503    0  0.00000000000E+00 -0.00000000000E+00 -0.19044568548E+04  0.19044568548E+04  0.00000000000E+00 0. -1.
         24    2    1    2    0    0 -0.63810725837E+01 -0.28724060765E+01  0.20242560887E+03  0.21807273543E+03  0.80812263972E+02 0.  0.
         25    2    1    2    0    0  0.14267349796E+03 -0.10317548210E+02 -0.29336485219E+03  0.34949885425E+03  0.12499733519E+03 0.  0.
         24    2    1    2    0    0 -0.23549808388E+03  0.17333524445E+03  0.50148805194E+02  0.30917455123E+03  0.87003137810E+02 0.  0.
        -13    1    5    5    0    0 -0.11008336543E+03  0.13183458128E+03  0.42045435044E+02  0.17682342258E+03  0.00000000000E+00 0.  1.
         14    1    5    5    0    0 -0.12541471846E+03  0.41500663170E+02  0.81033701504E+01  0.13235112866E+03  0.00000000000E+00 0. -1.
        -13    1    3    3    0    0 -0.28508786231E+02  0.29662741080E+02  0.11695504285E+03  0.12398028532E+03  0.00000000000E+00 0.  1.
         14    1    3    3    0    0  0.22127713647E+02 -0.32535147156E+02  0.85470566025E+02  0.94092450114E+02  0.00000000000E+00 0. -1.
          5    1    4    4  502    0  0.16312244277E+03 -0.20915188496E+02 -0.27112324563E+03  0.31713763694E+03  0.47000000000E+01 0.  1.
         -5    1    4    4    0  502 -0.20448944810E+02  0.10597640286E+02 -0.22241606560E+02  0.32361217311E+02  0.47000000000E+01 0.  1.
          1    1    1    2  503    0  0.21267658849E+02 -0.69101035148E+01 -0.14287307688E+04  0.14289057605E+04  0.00000000000E+00 0. -1.
         -2    1    1    2    0  501  0.77937999656E+02 -0.15323518665E+03  0.42110876853E+03  0.45484936973E+03  0.00000000000E+00 0.  1.
<mgrwt>
<rscale>  0 0.51425912E+02</rscale>
<asrwt>0</asrwt>
<pdfrwt beam="2">  1        2 0.28006718E+00 0.22362085E+02</pdfrwt>
<pdfrwt beam="1">  1       -1 0.12588889E+00 0.11826377E+03</pdfrwt>
<totfact> 0.85284304E+00</totfact>
</mgrwt>
</event>
<event>
13    1  0.2101801E-008  0.4449206E+02  0.7546771E-02  0.1554579E+00
          2   -1    0    0  503    0  0.00000000000E+00  0.00000000000E+00  0.39979357492E+04  0.39979357492E+04  0.00000000000E+00 0. -1.
          2   -1    0    0  502    0 -0.00000000000E+00 -0.00000000000E+00 -0.31740035966E+04  0.31740035966E+04  0.00000000000E+00 0. -1.
         24    2    1    2    0    0  0.14001224750E+04 -0.72441588863E+03  0.12742187361E+03  0.15839536149E+04  0.86898766833E+02 0.  0.
         25    2    1    2    0    0 -0.41191448204E+03  0.45899148630E+03 -0.24227293035E+02  0.62972882413E+03  0.12499882083E+03 0.  0.
         24    2    1    2    0    0 -0.97885006354E+03  0.20185712658E+03  0.16537922978E+04  0.19346949700E+04  0.95508723348E+02 0.  0.
        -13    1    5    5    0    0 -0.15624309905E+03  0.95540705143E+01  0.21014549846E+03  0.26203876963E+03  0.00000000000E+00 0.  1.
         14    1    5    5    0    0 -0.82260696448E+03  0.19230305607E+03  0.14436467994E+04  0.16726562004E+04  0.00000000000E+00 0. -1.
        -13    1    3    3    0    0  0.22713361015E+03 -0.12357120808E+03 -0.10841730072E+02  0.25879927248E+03  0.00000000000E+00 0.  1.
         14    1    3    3    0    0  0.11729888649E+04 -0.60084468055E+03  0.13826360368E+03  0.13251543425E+04  0.00000000000E+00 0. -1.
          5    1    4    4  501    0 -0.32996464900E+03  0.36524371324E+03 -0.69562561281E+02  0.49713245678E+03  0.47000000000E+01 0. -1.
         -5    1    4    4    0  501 -0.81949833040E+02  0.93747773052E+02  0.45335268247E+02  0.13259636735E+03  0.47000000000E+01 0. -1.
          1    1    1    2  502    0 -0.20459912438E+02  0.39507126499E+02 -0.19778901927E+04  0.19783905164E+04  0.00000000000E+00 0. -1.
          1    1    1    2  503    0  0.11101982996E+02  0.24060149255E+02  0.10448354669E+04  0.10451714203E+04  0.00000000000E+00 0. -1.
<mgrwt>
<rscale>  0 0.34335861E+02</rscale>
<asrwt>0</asrwt>
<pdfrwt beam="1">  1        2 0.58793172E+00 0.26498015E+02</pdfrwt>
<pdfrwt beam="2">  1        2 0.46676524E+00 0.44492063E+02</pdfrwt>
<totfact> 0.41847379E-01</totfact>
</mgrwt>
</event>
<event>
13    1  0.2101801E-008  0.4420425E+02  0.7546771E-02  0.1504988E+00
          2   -1    0    0  503    0  0.00000000000E+00  0.00000000000E+00  0.22271983459E+04  0.22271983459E+04  0.00000000000E+00 0. -1.
          2   -1    0    0  502    0 -0.00000000000E+00 -0.00000000000E+00 -0.95068625543E+03  0.95068625543E+03  0.00000000000E+00 0. -1.
         24    2    1    2    0    0 -0.30800718391E+03  0.75896229397E+01 -0.35289297981E+03  0.47554343452E+03  0.81743961274E+02 0.  0.
         25    2    1    2    0    0  0.30693194887E+03 -0.48450647645E+01  0.12500199277E+04  0.12932151989E+04  0.12500014087E+03 0.  0.
         24    2    1    2    0    0 -0.30860030239E+02 -0.71364083451E+02 -0.26991384396E+03  0.29216253536E+03  0.80375929441E+02 0.  0.
        -11    1    3    3    0    0 -0.21692990992E+03 -0.31333015571E+02 -0.23009772152E+03  0.31778185148E+03  0.00000000000E+00 0.  1.
         12    1    3    3    0    0 -0.91077273993E+02  0.38922638511E+02 -0.12279525828E+03  0.15776158304E+03  0.00000000000E+00 0. -1.
        -13    1    5    5    0    0 -0.66648718509E+01  0.53952509106E+01  0.18153842334E+01  0.87649796972E+01  0.00000000000E+00 0.  1.
         14    1    5    5    0    0 -0.24195158388E+02 -0.76759334361E+02 -0.27172922819E+03  0.28339755566E+03  0.00000000000E+00 0. -1.
          5    1    4    4  501    0  0.38593343311E+01 -0.26618534724E+02  0.89995143071E+02  0.94046034625E+02  0.47000000000E+01 0.  1.
         -5    1    4    4    0  501  0.30307261454E+03  0.21773469959E+02  0.11600247846E+04  0.11991691643E+04  0.47000000000E+01 0.  1.
          1    1    1    2  502    0  0.10926789002E+01  0.36982649837E+02 -0.23181164647E+03  0.23474571300E+03  0.00000000000E+00 0. -1.
          1    1    1    2  503    0  0.30842586377E+02  0.31636875438E+02  0.88111063301E+03  0.88221771952E+03  0.00000000000E+00 0. -1.
<mgrwt>
<rscale>  0 0.40441359E+02</rscale>
<asrwt>0</asrwt>
<pdfrwt beam="1">  1        2 0.32752917E+00 0.44204246E+02</pdfrwt>
<pdfrwt beam="2">  1        2 0.13980680E+00 0.36998788E+02</pdfrwt>
<totfact> 0.40190820E+01</totfact>
</mgrwt>
</event>
<event>
13    1  0.2101801E-008  0.1159287E+03  0.7546771E-02  0.1315436E+00
          2   -1    0    0  502    0  0.00000000000E+00  0.00000000000E+00  0.16771401497E+04  0.16771401497E+04  0.00000000000E+00 0. -1.
          2   -1    0    0  503    0 -0.00000000000E+00 -0.00000000000E+00 -0.23186289205E+04  0.23186289205E+04  0.00000000000E+00 0. -1.
         24    2    1    2    0    0  0.29104887708E+02  0.37627651752E+02 -0.27726838225E+03  0.29326374977E+03  0.82842841985E+02 0.  0.
         25    2    1    2    0    0 -0.38881693349E+02  0.18428142745E+03  0.35137315678E+03  0.41780352664E+03  0.12500104393E+03 0.  0.
         24    2    1    2    0    0  0.85914544429E+02 -0.21196569405E+03 -0.36916222623E+03  0.44154525051E+03  0.79816630914E+02 0.  0.
        -11    1    3    3    0    0  0.53796254625E+02  0.44073594700E+01 -0.14841881006E+03  0.15792911387E+03  0.00000000000E+00 0.  1.
         12    1    3    3    0    0 -0.24691366916E+02  0.33220292282E+02 -0.12884957219E+03  0.13533463590E+03  0.00000000000E+00 0. -1.
        -13    1    5    5    0    0  0.25097829971E+01 -0.81078142384E+02 -0.83314432930E+02  0.11628094821E+03  0.00000000000E+00 0.  1.
         14    1    5    5    0    0  0.83404761432E+02 -0.13088755167E+03 -0.28584779330E+03  0.32526430230E+03  0.00000000000E+00 0. -1.
          5    1    4    4  501    0  0.31797774609E+02  0.13729454269E+03  0.21558838601E+03  0.25760693334E+03  0.47000000000E+01 0.  1.
         -5    1    4    4    0  501 -0.70679467958E+02  0.46986884761E+02  0.13578477078E+03  0.16019659330E+03  0.47000000000E+01 0.  1.
          1    1    1    2  502    0 -0.10776791619E+03  0.43754335903E+02  0.12450421868E+04  0.12504632792E+04  0.00000000000E+00 0. -1.
          1    1    1    2  503    0  0.31630177405E+02 -0.53697721053E+02 -0.15914735059E+04  0.15926932640E+04  0.00000000000E+00 0. -1.
<mgrwt>
<rscale>  0 0.84998821E+02</rscale>
<asrwt>0</asrwt>
<pdfrwt beam="1">  1        2 0.24663826E+00 0.11592872E+03</pdfrwt>
<pdfrwt beam="2">  1        2 0.34097484E+00 0.62321051E+02</pdfrwt>
<totfact> 0.13729444E+01</totfact>
</mgrwt>
</event>
<event>
13    1  0.2101801E-008  0.1338772E+03  0.7546771E-02  0.1361205E+00
         -1   -1    0    0    0  501 -0.00000000000E+00  0.00000000000E+00  0.11365321812E+04  0.11365321812E+04  0.00000000000E+00 0.  1.
          2   -1    0    0  503    0  0.00000000000E+00 -0.00000000000E+00 -0.16017799049E+04  0.16017799049E+04  0.00000000000E+00 0. -1.
         24    2    1    2    0    0 -0.83891115083E+01  0.47006769173E+02  0.23439954652E+03  0.25171939862E+03  0.78354927677E+02 0.  0.
         25    2    1    2    0    0 -0.52431349944E+02  0.69739982497E+02 -0.62159700601E+01  0.15256285077E+03  0.12499629409E+03 0.  0.
         24    2    1    2    0    0  0.67440955238E+02  0.53995508249E+02 -0.11398203909E+03  0.16432858478E+03  0.80920832832E+02 0.  0.
        -11    1    5    5    0    0  0.29425464731E+02  0.69245132002E+02 -0.58187402437E+02  0.95113196156E+02  0.00000000000E+00 0.  1.
         12    1    5    5    0    0  0.38015490507E+02 -0.15249623753E+02 -0.55794636655E+02  0.69215388626E+02  0.00000000000E+00 0. -1.
        -13    1    3    3    0    0  0.11076820784E+01 -0.14383859315E+02  0.12566846885E+03  0.12649381974E+03  0.00000000000E+00 0.  1.
         14    1    3    3    0    0 -0.94967935868E+01  0.61390628489E+02  0.10873107767E+03  0.12522557888E+03  0.00000000000E+00 0. -1.
          5    1    4    4  502    0  0.15331612161E+02  0.31291953358E+01  0.42605580998E+02  0.45630863756E+02  0.47000000000E+01 0. -1.
         -5    1    4    4    0  502 -0.67762962106E+02  0.66610787162E+02 -0.48821551058E+02  0.10693198702E+03  0.47000000000E+01 0. -1.
          1    1    1    2  503    0 -0.17299371559E+02 -0.13608968927E+03 -0.13707362127E+04  0.13775839128E+04  0.00000000000E+00 0. -1.
         -2    1    1    2    0  501  0.10678877773E+02 -0.34652570649E+02  0.79128695169E+03  0.79211733916E+03  0.00000000000E+00 0.  1.
<mgrwt>
<rscale>  0 0.69674125E+02</rscale>
<asrwt>0</asrwt>
<pdfrwt beam="2">  1        2 0.23555587E+00 0.13387724E+03</pdfrwt>
<pdfrwt beam="1">  1       -1 0.16713709E+00 0.36260710E+02</pdfrwt>
<totfact> 0.52687953E+00</totfact>
</mgrwt>
</event>
<event>
13    1  0.2101801E-008  0.8698148E+02  0.7546771E-02  0.1437815E+00
         -1   -1    0    0    0  501 -0.00000000000E+00  0.00000000000E+00  0.28794228081E+03  0.28794228081E+03  0.00000000000E+00 0.  1.
          2   -1    0    0  503    0  0.00000000000E+00 -0.00000000000E+00 -0.14083084558E+04  0.14083084558E+04  0.00000000000E+00 0. -1.
         24    2    1    2    0    0 -0.71337145979E+02  0.29611878486E+03 -0.20331509209E+03  0.37483329582E+03  0.79922774232E+02 0.  0.
         25    2    1    2    0    0  0.65762032921E+02  0.23638399272E+02 -0.24316904199E+03  0.28220324497E+03  0.12499627832E+03 0.  0.
         24    2    1    2    0    0  0.62444717348E+02 -0.21968306538E+03 -0.32158920596E+03  0.40254028419E+03  0.80368346197E+02 0.  0.
        -11    1    5    5    0    0  0.22644371265E+02 -0.55879797034E+01 -0.21175321846E+02  0.31502179646E+02  0.00000000000E+00 0.  1.
         12    1    5    5    0    0  0.39800346083E+02 -0.21409508567E+03 -0.30041388411E+03  0.37103810454E+03  0.00000000000E+00 0. -1.
        -13    1    3    3    0    0  0.14799484196E+02  0.23960024593E+02 -0.92176046005E+01  0.29632275403E+02  0.00000000000E+00 0.  1.
         14    1    3    3    0    0 -0.86136630175E+02  0.27215876027E+03 -0.19409748749E+03  0.34520102042E+03  0.00000000000E+00 0. -1.
          5    1    4    4  502    0  0.37235325825E+02  0.69796256649E+02 -0.91475022369E+02  0.12102791682E+03  0.47000000000E+01 0.  1.
         -5    1    4    4    0  502  0.28526707097E+02 -0.46157857376E+02 -0.15169401962E+03  0.16117532815E+03  0.47000000000E+01 0.  1.
          1    1    1    2  503    0 -0.49657164819E+02 -0.70541287810E+02 -0.48903889829E+03  0.49658931860E+03  0.00000000000E+00 0. -1.
         -2    1    1    2    0  501 -0.72124394715E+01 -0.29532830945E+02  0.13674606330E+03  0.14008459307E+03  0.00000000000E+00 0.  1.
<mgrwt>
<rscale>  0 0.51422804E+02</rscale>
<asrwt>0</asrwt>
<pdfrwt beam="2">  1        2 0.20710419E+00 0.86981478E+02</pdfrwt>
<pdfrwt beam="1">  1       -1 0.42344453E-01 0.30400779E+02</pdfrwt>
<totfact> 0.11419258E+02</totfact>
</mgrwt>
</event>
<event>
13    1  0.2101801E-008  0.7199859E+02  0.7546771E-02  0.1434718E+00
          2   -1    0    0  502    0  0.00000000000E+00  0.00000000000E+00  0.86224630826E+03  0.86224630826E+03  0.00000000000E+00 0. -1.
          2   -1    0    0  503    0 -0.00000000000E+00 -0.00000000000E+00 -0.20571918635E+04  0.20571918635E+04  0.00000000000E+00 0. -1.
         24    2    1    2    0    0  0.92848870656E+02  0.27963491892E+03 -0.10779451968E+04  0.11204627460E+04  0.81573998291E+02 0.  0.
         25    2    1    2    0    0 -0.11526919766E+03 -0.29947463919E+03 -0.35118261564E+03  0.49185975284E+03  0.12499895797E+03 0.  0.
         24    2    1    2    0    0 -0.40999155523E+02 -0.62678580876E+02  0.14420674574E+02  0.11663199410E+03  0.88235655706E+02 0.  0.
        -11    1    5    5    0    0  0.34462382803E+01  0.79324974019E+01  0.30464973150E+02  0.31668843717E+02  0.00000000000E+00 0.  1.
         12    1    5    5    0    0 -0.44445393803E+02 -0.70611078278E+02 -0.16044298576E+02  0.84963150381E+02  0.00000000000E+00 0. -1.
        -13    1    3    3    0    0  0.41564579851E+02  0.13675381768E+03 -0.67270623132E+03  0.68772297810E+03  0.00000000000E+00 0.  1.
         14    1    3    3    0    0  0.51284290806E+02  0.14288110124E+03 -0.40523896546E+03  0.43273976788E+03  0.00000000000E+00 0. -1.
          5    1    4    4  501    0 -0.31999361796E+02 -0.19848271117E+02 -0.37295366327E+01  0.38130204107E+02  0.47000000000E+01 0.  1.
         -5    1    4    4    0  501 -0.83269835863E+02 -0.27962636807E+03 -0.34745307900E+03  0.45372954874E+03  0.47000000000E+01 0.  1.
          1    1    1    2  502    0  0.29928163403E+02  0.65445765626E+02  0.70255392856E+03  0.70623003741E+03  0.00000000000E+00 0. -1.
          1    1    1    2  503    0  0.33491319123E+02  0.17072535519E+02 -0.48279234599E+03  0.48425364146E+03  0.00000000000E+00 0. -1.
<mgrwt>
<rscale>  0 0.52024544E+02</rscale>
<asrwt>0</asrwt>
<pdfrwt beam="1">  1        2 0.12680093E+00 0.71998588E+02</pdfrwt>
<pdfrwt beam="2">  1        2 0.30252821E+00 0.37591753E+02</pdfrwt>
<totfact> 0.53824400E+01</totfact>
</mgrwt>
</event>
<event>
13    1  0.2101801E-008  0.7078944E+02  0.7546771E-02  0.1428781E+00
         -3   -1    0    0    0  501 -0.00000000000E+00  0.00000000000E+00  0.58265768420E+04  0.58265768420E+04  0.00000000000E+00 0.  1.
          2   -1    0    0  503    0  0.00000000000E+00 -0.00000000000E+00 -0.25927077534E+04  0.25927077534E+04  0.00000000000E+00 0. -1.
         24    2    1    2    0    0  0.13402022352E+02  0.11910760486E+04  0.60096366011E+03  0.13372189799E+04  0.90307871387E+02 0.  0.
         25    2    1    2    0    0  0.23313756220E+03 -0.11255846508E+04  0.26600495170E+04  0.29004797053E+04  0.12500063599E+03 0.  0.
         24    2    1    2    0    0 -0.23177108018E+03  0.33486767828E+02 -0.90888436144E+02  0.26407040692E+03  0.81444918543E+02 0.  0.
        -11    1    5    5    0    0 -0.86268091823E+02  0.36320310952E+01 -0.75577691491E+02  0.11474912970E+03  0.00000000000E+00 0.  1.
         12    1    5    5    0    0 -0.14550298836E+03  0.29854736733E+02 -0.15310744653E+02  0.14932127722E+03  0.00000000000E+00 0. -1.
        -13    1    3    3    0    0  0.16217453760E+02  0.10393837408E+04  0.55660779289E+03  0.11791496095E+04  0.00000000000E+00 0.  1.
         14    1    3    3    0    0 -0.28154314084E+01  0.15169230785E+03  0.44355867224E+02  0.15806937044E+03  0.00000000000E+00 0. -1.
          5    1    4    4  502    0  0.13671842613E+03 -0.90506397971E+03  0.21269176655E+04  0.23155201535E+04  0.47000000000E+01 0. -1.
         -5    1    4    4    0  502  0.96419136073E+02 -0.22052067108E+03  0.53313185147E+03  0.58495955178E+03  0.47000000000E+01 0. -1.
          1    1    1    2  503    0 -0.27201745873E+02 -0.29312233087E+02 -0.19260490294E+04  0.19264641200E+04  0.00000000000E+00 0. -1.
         -4    1    1    2    0  501  0.12433241504E+02 -0.69665932573E+02  0.19897933770E+04  0.19910513833E+04  0.00000000000E+00 0.  1.
<mgrwt>
<rscale>  0 0.53205436E+02</rscale>
<asrwt>0</asrwt>
<pdfrwt beam="2">  1        2 0.38128055E+00 0.39989273E+02</pdfrwt>
<pdfrwt beam="1">  1       -3 0.85684954E+00 0.70789444E+02</pdfrwt>
<totfact> 0.83335861E-05</totfact>
</mgrwt>
</event>
<event>
13    1  0.2101801E-008  0.7749108E+02  0.7546771E-02  0.1391615E+00
          2   -1    0    0  503    0  0.00000000000E+00  0.00000000000E+00  0.12250331653E+04  0.12250331653E+04  0.00000000000E+00 0. -1.
          2   -1    0    0  502    0 -0.00000000000E+00 -0.00000000000E+00 -0.13063695751E+04  0.13063695751E+04  0.00000000000E+00 0. -1.
         24    2    1    2    0    0  0.94986926701E+01 -0.27759982727E+02 -0.22499497042E+03  0.24077912389E+03  0.80566792079E+02 0.  0.
         25    2    1    2    0    0 -0.44818426550E+02 -0.32716696305E+02  0.65994421723E+03  0.67396794483E+03  0.12500938857E+03 0.  0.
         24    2    1    2    0    0 -0.10909048257E+02  0.10343513281E+02  0.39685782053E+02  0.91527749028E+02  0.81094833029E+02 0.  0.
        -11    1    5    5    0    0 -0.53180301158E+01  0.26273669307E+02 -0.17426114912E+02  0.31972748148E+02  0.00000000000E+00 0.  1.
         12    1    5    5    0    0 -0.55910181407E+01 -0.15930156026E+02  0.57111896965E+02  0.59555000880E+02  0.00000000000E+00 0. -1.
        -13    1    3    3    0    0  0.77054411941E+00 -0.83922467728E+01 -0.21836133393E+03  0.21852390190E+03  0.00000000000E+00 0.  1.
         14    1    3    3    0    0  0.87281485507E+01 -0.19367735954E+02 -0.66336364887E+01  0.22255221998E+02  0.00000000000E+00 0. -1.
          5    1    4    4  501    0 -0.65113932317E+02 -0.52187777130E+02  0.26210638117E+03  0.27510949332E+03  0.47000000000E+01 0. -1.
         -5    1    4    4    0  501  0.20295505767E+02  0.19471080826E+02  0.39783783606E+03  0.39885845151E+03  0.47000000000E+01 0. -1.
          1    1    1    2  502    0  0.19474603454E+02  0.90969035297E+02 -0.10372329624E+04  0.10413965834E+04  0.00000000000E+00 0. -1.
          1    1    1    2  503    0  0.26754178683E+02 -0.40835869546E+02  0.48126152376E+03  0.48373133925E+03  0.00000000000E+00 0. -1.
<mgrwt>
<rscale>  0 0.61506784E+02</rscale>
<asrwt>0</asrwt>
<pdfrwt beam="1">  1        2 0.18015194E+00 0.48819610E+02</pdfrwt>
<pdfrwt beam="2">  1        2 0.19211317E+00 0.77491083E+02</pdfrwt>
<totfact> 0.73466760E+01</totfact>
</mgrwt>
</event>
<event>
13    1  0.2101801E-008  0.8904846E+02  0.7546771E-02  0.1357502E+00
          2   -1    0    0  502    0  0.00000000000E+00  0.00000000000E+00  0.47222850877E+03  0.47222850877E+03  0.00000000000E+00 0. -1.
          2   -1    0    0  503    0 -0.00000000000E+00 -0.00000000000E+00 -0.27812649933E+04  0.27812649933E+04  0.00000000000E+00 0. -1.
         24    2    1    2    0    0  0.16138163061E+03  0.19306673353E+03 -0.27913289637E+03  0.38485879374E+03  0.82959767287E+02 0.  0.
         25    2    1    2    0    0 -0.20188929855E+03 -0.23891403044E+03  0.64378230304E+02  0.34294101004E+03  0.12499910807E+03 0.  0.
         24    2    1    2    0    0 -0.50349607986E+02 -0.63473404429E+01 -0.41313883706E+03  0.42382451815E+03  0.79800700135E+02 0.  0.
        -13    1    3    3    0    0  0.39943767249E+02  0.20154572699E+02 -0.16283161951E+02  0.47611476619E+02  0.00000000000E+00 0.  1.
         14    1    3    3    0    0  0.12143786336E+03  0.17291216083E+03 -0.26284973442E+03  0.33724731712E+03  0.00000000000E+00 0. -1.
        -13    1    5    5    0    0 -0.20250830909E+02  0.35785030997E+02 -0.14425804964E+03  0.15000349823E+03  0.00000000000E+00 0.  1.
         14    1    5    5    0    0 -0.30098777077E+02 -0.42132371440E+02 -0.26888078742E+03  0.27382101991E+03  0.00000000000E+00 0. -1.
          5    1    4    4  501    0 -0.11303123009E+02 -0.11840030644E+02 -0.27667956577E+02  0.32489271099E+02  0.47000000000E+01 0.  1.
         -5    1    4    4    0  501 -0.19058617554E+03 -0.22707399980E+03  0.92046186882E+02  0.31045173894E+03  0.47000000000E+01 0.  1.
          1    1    1    2  502    0  0.42073481502E+02 -0.37319559887E+02  0.20520310580E+03  0.21277039743E+03  0.00000000000E+00 0. -1.
          1    1    1    2  503    0  0.48783794427E+02  0.89514197243E+02 -0.18863460872E+04  0.18890987827E+04  0.00000000000E+00 0. -1.
<mgrwt>
<rscale>  0 0.70767769E+02</rscale>
<asrwt>0</asrwt>
<pdfrwt beam="1">  1        2 0.69445370E-01 0.56239909E+02</pdfrwt>
<pdfrwt beam="2">  1        2 0.40900955E+00 0.89048456E+02</pdfrwt>
<totfact> 0.42216998E+01</totfact>
</mgrwt>
</event>
<event>
13    1  0.2101801E-008  0.1168439E+03  0.7546771E-02  0.1365757E+00
          2   -1    0    0  502    0  0.00000000000E+00  0.00000000000E+00  0.23984890773E+04  0.23984890773E+04  0.00000000000E+00 0. -1.
          2   -1    0    0  503    0 -0.00000000000E+00 -0.00000000000E+00 -0.16846611560E+04  0.16846611560E+04  0.00000000000E+00 0. -1.
         24    2    1    2    0    0  0.77747032434E+02 -0.33568878707E+02 -0.29604342570E+03  0.31819612441E+03  0.80222147920E+02 0.  0.
         25    2    1    2    0    0 -0.18595247813E+03 -0.17617897286E+03  0.50783560173E+03  0.58235534933E+03  0.12499359946E+03 0.  0.
         24    2    1    2    0    0  0.70869643224E+01  0.11269605502E+03  0.12702580312E+03  0.18817200394E+03  0.80762135478E+02 0.  0.
        -11    1    5    5    0    0 -0.40947596435E+01 -0.81752330149E+01 -0.36231803579E+01  0.98350865421E+01  0.00000000000E+00 0.  1.
         12    1    5    5    0    0  0.11181723966E+02  0.12087128804E+03  0.13064898347E+03  0.17833691739E+03  0.00000000000E+00 0. -1.
        -11    1    3    3    0    0  0.86616708135E+02 -0.39484995299E+02 -0.19929469631E+03  0.22086171004E+03  0.00000000000E+00 0.  1.
         12    1    3    3    0    0 -0.88696757011E+01  0.59161165925E+01 -0.96748729386E+02  0.97334414368E+02  0.00000000000E+00 0. -1.
          5    1    4    4  501    0 -0.77011394963E-01 -0.19658401252E+02  0.14016511884E+03  0.14161500348E+03  0.47000000000E+01 0. -1.
         -5    1    4    4    0  501 -0.18587546674E+03 -0.15652057161E+03  0.36767048288E+03  0.44074034584E+03  0.47000000000E+01 0. -1.
          1    1    1    2  502    0  0.39923052955E+02 -0.24045895283E+01  0.16818771792E+04  0.16823526616E+04  0.00000000000E+00 0. -1.
          1    1    1    2  503    0  0.61195428421E+02  0.99456386075E+02 -0.13068672370E+04  0.13120740941E+04  0.00000000000E+00 0. -1.
<mgrwt>
<rscale>  0 0.68360941E+02</rscale>
<asrwt>0</asrwt>
<pdfrwt beam="1">  1        2 0.35271898E+00 0.39995402E+02</pdfrwt>
<pdfrwt beam="2">  1        2 0.24774429E+00 0.11684388E+03</pdfrwt>
<totfact> 0.13230901E+01</totfact>
</mgrwt>
</event>
<event>
13    1  0.2101801E-008  0.6230734E+02  0.7546771E-02  0.1425573E+00
         -1   -1    0    0    0  501 -0.00000000000E+00  0.00000000000E+00  0.32445800193E+03  0.32445800193E+03  0.00000000000E+00 0.  1.
          2   -1    0    0  503    0  0.00000000000E+00 -0.00000000000E+00 -0.14488041787E+04  0.14488041787E+04  0.00000000000E+00 0. -1.
         24    2    1    2    0    0  0.88838558904E+02  0.11255769451E+03 -0.98352869927E+01  0.16504593766E+03  0.81128937655E+02 0.  0.
         25    2    1    2    0    0 -0.78462020476E+01 -0.31052165464E+02  0.10157689689E+03  0.16422035523E+03  0.12499863689E+03 0.  0.
         24    2    1    2    0    0  0.25096811089E+02 -0.95515775714E+02 -0.23937899202E+03  0.26907417768E+03  0.73112912251E+02 0.  0.
        -13    1    5    5    0    0  0.12317553035E+02 -0.17777404507E+02 -0.55474457269E+01  0.22327838629E+02  0.00000000000E+00 0.  1.
         14    1    5    5    0    0  0.12779258054E+02 -0.77738371207E+02 -0.23383154629E+03  0.24674633905E+03  0.00000000000E+00 0. -1.
        -13    1    3    3    0    0  0.52252936418E+02  0.85922222012E+02 -0.42560490365E+02  0.10919886877E+03  0.00000000000E+00 0.  1.
         14    1    3    3    0    0  0.36585622486E+02  0.26635472502E+02  0.32725203372E+02  0.55847068892E+02  0.00000000000E+00 0. -1.
          5    1    4    4  502    0 -0.30002110886E+02 -0.46723805827E+02  0.11915843116E+03  0.13154490642E+03  0.47000000000E+01 0.  1.
         -5    1    4    4    0  502  0.22155908839E+02  0.15671640364E+02 -0.17581534263E+02  0.32675448814E+02  0.47000000000E+01 0.  1.
          1    1    1    2  503    0 -0.46556023289E+02 -0.10313285857E+00 -0.10658155873E+04  0.10668319174E+04  0.00000000000E+00 0. -1.
         -2    1    1    2    0  501 -0.59533144656E+02  0.14113379522E+02  0.89106792586E+02  0.10808979267E+03  0.00000000000E+00 0.  1.
<mgrwt>
<rscale>  0 0.53858975E+02</rscale>
<asrwt>0</asrwt>
<pdfrwt beam="2">  1        2 0.21305943E+00 0.46556138E+02</pdfrwt>
<pdfrwt beam="1">  1       -1 0.47714413E-01 0.62307341E+02</pdfrwt>
<totfact> 0.93500611E+01</totfact>
</mgrwt>
</event>
<event>
13    1  0.2101801E-008  0.9437605E+02  0.7546771E-02  0.1304195E+00
          2   -1    0    0  502    0  0.00000000000E+00  0.00000000000E+00  0.13910270337E+04  0.13910270337E+04  0.00000000000E+00 0. -1.
          2   -1    0    0  503    0 -0.00000000000E+00 -0.00000000000E+00 -0.61443724725E+03  0.61443724725E+03  0.00000000000E+00 0. -1.
         24    2    1    2    0    0  0.36652902333E+02  0.84114180186E+01 -0.13399730077E+03  0.16160027669E+03  0.82129078947E+02 0.  0.
         25    2    1    2    0    0 -0.11102385633E+03  0.92621352771E+01  0.56497781228E+03  0.58926874746E+03  0.12500257815E+03 0.  0.
         24    2    1    2    0    0  0.92155150061E+02 -0.62721801532E+02  0.11187845442E+03  0.17579074168E+03  0.77194560860E+02 0.  0.
        -11    1    3    3    0    0 -0.10076866905E+02  0.22907933270E+02 -0.97228290645E+02  0.10039749576E+03  0.00000000000E+00 0.  1.
         12    1    3    3    0    0  0.46729769238E+02 -0.14496515251E+02 -0.36769010127E+02  0.61202780927E+02  0.00000000000E+00 0. -1.
        -11    1    5    5    0    0  0.65817672774E+02 -0.44417494895E+01  0.81886218293E+02  0.10515249847E+03  0.00000000000E+00 0.  1.
         12    1    5    5    0    0  0.26337477286E+02 -0.58280052043E+02  0.29992236129E+02  0.70638243211E+02  0.00000000000E+00 0. -1.
          5    1    4    4  501    0 -0.96590944881E+01 -0.34404490955E+02  0.44843592000E+02  0.57532641585E+02  0.47000000000E+01 0.  1.
         -5    1    4    4    0  501 -0.10136476185E+03  0.43666626233E+02  0.52013422028E+03  0.53173610588E+03  0.47000000000E+01 0.  1.
          1    1    1    2  502    0  0.92776269466E+02  0.35335795594E+02  0.64511635072E+03  0.65271062546E+03  0.00000000000E+00 0. -1.
          1    1    1    2  503    0 -0.11056046553E+03  0.97124526429E+01 -0.41138553024E+03  0.42609388961E+03  0.00000000000E+00 0. -1.
<mgrwt>
<rscale>  0 0.89447456E+02</rscale>
<asrwt>0</asrwt>
<pdfrwt beam="1">  1        2 0.20456280E+00 0.94376046E+02</pdfrwt>
<pdfrwt beam="2">  1        2 0.90358419E-01 0.84776250E+02</pdfrwt>
<totfact> 0.15053760E+02</totfact>
</mgrwt>
</event>
<event>
13    1  0.2101801E-008  0.9114206E+02  0.7546771E-02  0.1312893E+00
          2   -1    0    0  503    0  0.00000000000E+00  0.00000000000E+00  0.22162037851E+04  0.22162037851E+04  0.00000000000E+00 0. -1.
          2   -1    0    0  502    0 -0.00000000000E+00 -0.00000000000E+00 -0.25901305223E+04  0.25901305223E+04  0.00000000000E+00 0. -1.
         24    2    1    2    0    0 -0.61228778666E+02 -0.16156158594E+03 -0.82984907407E+03  0.85133738731E+03  0.79213331629E+02 0.  0.
         25    2    1    2    0    0  0.74997892021E+02  0.14423652687E+03  0.19449374030E+03  0.28263440747E+03  0.12500213512E+03 0.  0.
         24    2    1    2    0    0  0.30699779580E+02  0.21440116248E+02  0.41965560931E+02  0.97543047382E+02  0.79695562846E+02 0.  0.
        -11    1    5    5    0    0 -0.16131840949E+02  0.47596995924E+01  0.44694686429E+02  0.47754644042E+02  0.00000000000E+00 0.  1.
         12    1    5    5    0    0  0.46831620529E+02  0.16680416655E+02 -0.27291254980E+01  0.49788403340E+02  0.00000000000E+00 0. -1.
        -13    1    3    3    0    0 -0.33603590170E+02 -0.16712737496E+02 -0.26108983156E+03  0.26377341984E+03  0.00000000000E+00 0.  1.
         14    1    3    3    0    0 -0.27625188496E+02 -0.14484884844E+03 -0.56875924250E+03  0.58756396747E+03  0.00000000000E+00 0. -1.
          5    1    4    4  501    0  0.94923846481E+02  0.12298581684E+03  0.19929500713E+03  0.25273827894E+03  0.47000000000E+01 0.  1.
         -5    1    4    4    0  501 -0.19925954461E+02  0.21250710028E+02 -0.48012668389E+01  0.29896128530E+02  0.47000000000E+01 0.  1.
          1    1    1    2  502    0  0.77812706048E+02  0.22882916306E+02 -0.16746291573E+04  0.16765921566E+04  0.00000000000E+00 0. -1.
          1    1    1    2  503    0 -0.12228159898E+03 -0.26997973483E+02  0.18940921929E+04  0.18982273086E+04  0.00000000000E+00 0. -1.
<mgrwt>
<rscale>  0 0.85978575E+02</rscale>
<asrwt>0</asrwt>
<pdfrwt beam="1">  1        2 0.32591233E+00 0.91142064E+02</pdfrwt>
<pdfrwt beam="2">  1        2 0.38090154E+00 0.81107614E+02</pdfrwt>
<totfact> 0.54969779E+00</totfact>
</mgrwt>
</event>
<event>
13    1  0.2101801E-008  0.1346498E+03  0.7546771E-02  0.1333616E+00
          2   -1    0    0  503    0  0.00000000000E+00  0.00000000000E+00  0.11971567099E+04  0.11971567099E+04  0.00000000000E+00 0. -1.
          2   -1    0    0  502    0 -0.00000000000E+00 -0.00000000000E+00 -0.36134576659E+04  0.36134576659E+04  0.00000000000E+00 0. -1.
         24    2    1    2    0    0  0.18803768561E+02 -0.15607685311E+03 -0.22266470851E+04  0.22336430752E+04  0.80564136963E+02 0.  0.
         25    2    1    2    0    0  0.19800624135E+02 -0.10262742377E+03 -0.45527444787E+01  0.16300494605E+03  0.12500172850E+03 0.  0.
         24    2    1    2    0    0  0.28719717635E+02  0.16585748622E+03 -0.86610111838E+03  0.88592216879E+03  0.79958826743E+02 0.  0.
        -11    1    3    3    0    0 -0.96874749700E+01 -0.13310977511E+02 -0.67025958603E+03  0.67046173788E+03  0.00000000000E+00 0.  1.
         12    1    3    3    0    0  0.28491243531E+02 -0.14276587560E+03 -0.15563874990E+04  0.15631813373E+04  0.00000000000E+00 0. -1.
        -13    1    5    5    0    0  0.32119227761E+02  0.93970231910E+02 -0.66409560568E+03  0.67147972625E+03  0.00000000000E+00 0.  1.
         14    1    5    5    0    0 -0.33995101267E+01  0.71887254313E+02 -0.20200551270E+03  0.21444244254E+03  0.00000000000E+00 0. -1.
          5    1    4    4  501    0  0.58633145214E+02 -0.65561512522E+01 -0.30735461548E+01  0.59265213430E+02  0.47000000000E+01 0. -1.
         -5    1    4    4    0  501 -0.38832521079E+02 -0.96071272516E+02 -0.14791983239E+01  0.10373973262E+03  0.47000000000E+01 0. -1.
          1    1    1    2  502    0  0.42946714322E+02  0.15516279103E+02 -0.41816878301E+03  0.42065461637E+03  0.00000000000E+00 0. -1.
          1    1    1    2  503    0 -0.11027082465E+03  0.77330511556E+02  0.10991687749E+04  0.11073895695E+04  0.00000000000E+00 0. -1.
<mgrwt>
<rscale>  0 0.78413073E+02</rscale>
<asrwt>0</asrwt>
<pdfrwt beam="1">  1        2 0.17605245E+00 0.13464979E+03</pdfrwt>
<pdfrwt beam="2">  1        2 0.53139084E+00 0.45663719E+02</pdfrwt>
<totfact> 0.53080701E+00</totfact>
</mgrwt>
</event>
<event>
13    1  0.2101801E-008  0.1147628E+03  0.7546771E-02  0.1291659E+00
          2   -1    0    0  503    0  0.00000000000E+00  0.00000000000E+00  0.15030106941E+04  0.15030106941E+04  0.00000000000E+00 0. -1.
          2   -1    0    0  502    0 -0.00000000000E+00 -0.00000000000E+00 -0.35945102522E+04  0.35945102522E+04  0.00000000000E+00 0. -1.
         24    2    1    2    0    0 -0.41426093162E+02  0.25768153150E+02 -0.10899021259E+04  0.10939190517E+04  0.79950788964E+02 0.  0.
         25    2    1    2    0    0 -0.11227552336E+03 -0.85638735020E+02  0.67248751126E+02  0.20022130527E+03  0.12500556178E+03 0.  0.
         24    2    1    2    0    0  0.54267524219E+02  0.10136079663E+03 -0.10423635794E+04  0.10518171217E+04  0.81107647846E+02 0.  0.
        -11    1    5    5    0    0  0.67781850037E+01  0.80639255530E+02 -0.45223048089E+03  0.45941380168E+03  0.00000000000E+00 0.  1.
         12    1    5    5    0    0  0.47489339216E+02  0.20721541102E+02 -0.59013309855E+03  0.59240332005E+03  0.00000000000E+00 0. -1.
        -13    1    3    3    0    0 -0.45585273839E+02 -0.17808128020E+02 -0.65211777941E+03  0.65395163800E+03  0.00000000000E+00 0.  1.
         14    1    3    3    0    0  0.41591806769E+01  0.43576281170E+02 -0.43778434654E+03  0.43996741372E+03  0.00000000000E+00 0. -1.
          5    1    4    4  501    0 -0.13006753827E+03 -0.93348424745E+02  0.37662029377E+02  0.16453574497E+03  0.47000000000E+01 0.  1.
         -5    1    4    4    0  501  0.17792014914E+02  0.77096897256E+01  0.29586721749E+02  0.35685560304E+02  0.47000000000E+01 0.  1.
          1    1    1    2  502    0  0.12206093410E+03 -0.11643535010E+03 -0.13827685202E+04  0.13930200439E+04  0.00000000000E+00 0. -1.
          1    1    1    2  503    0 -0.22626841795E+02  0.74945135337E+02  0.13562859163E+04  0.13585434237E+04  0.00000000000E+00 0. -1.
<mgrwt>
<rscale>  0 0.94785859E+02</rscale>
<asrwt>0</asrwt>
<pdfrwt beam="1">  1        2 0.22103098E+00 0.78286316E+02</pdfrwt>
<pdfrwt beam="2">  1        2 0.52860445E+00 0.11476283E+03</pdfrwt>
<totfact> 0.32996353E+00</totfact>
</mgrwt>
</event>
<event>
13    1  0.2101801E-008  0.1381136E+03  0.7546771E-02  0.1352381E+00
          2   -1    0    0  503    0  0.00000000000E+00  0.00000000000E+00  0.18255349637E+04  0.18255349637E+04  0.00000000000E+00 0. -1.
          2   -1    0    0  502    0 -0.00000000000E+00 -0.00000000000E+00 -0.19197537556E+04  0.19197537556E+04  0.00000000000E+00 0. -1.
         24    2    1    2    0    0  0.10386615455E+03 -0.62931201962E+02 -0.74254917372E+03  0.75709302763E+03  0.84036080664E+02 0.  0.
         25    2    1    2    0    0 -0.39753888214E+03  0.17208633531E+03  0.39097176221E+03  0.59677016312E+03  0.12499935649E+03 0.  0.
         24    2    1    2    0    0  0.38726943300E+03  0.37213563857E+02 -0.18763703939E+03  0.43925342649E+03  0.79833896683E+02 0.  0.
        -11    1    3    3    0    0  0.50102181828E+02  0.75431691366E+01 -0.15977421675E+03  0.16761541803E+03  0.00000000000E+00 0.  1.
         12    1    3    3    0    0  0.53763972723E+02 -0.70474371099E+02 -0.58277495697E+03  0.58947760960E+03  0.00000000000E+00 0. -1.
        -13    1    5    5    0    0  0.26898876135E+03  0.51419295845E+00 -0.15782772590E+03  0.31187306583E+03  0.00000000000E+00 0.  1.
         14    1    5    5    0    0  0.11828067165E+03  0.36699370899E+02 -0.29809313482E+02  0.12738036066E+03  0.00000000000E+00 0. -1.
          5    1    4    4  501    0  0.68964596005E+01 -0.43845561969E+01  0.10506717470E+02  0.14116182205E+02  0.47000000000E+01 0. -1.
         -5    1    4    4    0  501 -0.40443534174E+03  0.17647089151E+03  0.38046504474E+03  0.58265398091E+03  0.47000000000E+01 0. -1.
          1    1    1    2  502    0 -0.10113427933E+02 -0.36491772813E+02 -0.74913656058E+03  0.75009300577E+03  0.00000000000E+00 0. -1.
          1    1    1    2  503    0 -0.83483277479E+02 -0.10987692440E+03  0.11941322195E+04  0.12020790963E+04  0.00000000000E+00 0. -1.
<mgrwt>
<rscale>  0 0.72318655E+02</rscale>
<asrwt>0</asrwt>
<pdfrwt beam="1">  1        2 0.26846102E+00 0.13811364E+03</pdfrwt>
<pdfrwt beam="2">  1        2 0.28231673E+00 0.37867280E+02</pdfrwt>
<totfact> 0.18642992E+01</totfact>
</mgrwt>
</event>
<event>
13    1  0.2101801E-008  0.4834062E+03  0.7546771E-02  0.1121412E+00
          2   -1    0    0  503    0  0.00000000000E+00  0.00000000000E+00  0.25340237516E+04  0.25340237516E+04  0.00000000000E+00 0. -1.
          2   -1    0    0  502    0 -0.00000000000E+00 -0.00000000000E+00 -0.13295201909E+04  0.13295201909E+04  0.00000000000E+00 0. -1.
         24    2    1    2    0    0  0.39838216668E+03  0.86266397748E+02 -0.17749019737E+03  0.45171220277E+03  0.79943116403E+02 0.  0.
         25    2    1    2    0    0  0.24603940205E+03  0.38129554041E+02  0.94295834758E+03  0.98325126955E+03  0.12499345399E+03 0.  0.
         24    2    1    2    0    0 -0.49046964991E+02  0.56200374311E+02  0.75314846823E+02  0.13331026580E+03  0.80840670262E+02 0.  0.
        -11    1    3    3    0    0  0.22692587453E+03  0.30946712897E+02 -0.13762023781E+03  0.26719352804E+03  0.00000000000E+00 0.  1.
         12    1    3    3    0    0  0.17145629215E+03  0.55319684851E+02 -0.39869959560E+02  0.18451867474E+03  0.00000000000E+00 0. -1.
        -13    1    5    5    0    0 -0.31165856965E+01 -0.11820365676E+02  0.43664561874E+02  0.45343446216E+02  0.00000000000E+00 0.  1.
         14    1    5    5    0    0 -0.45930379295E+02  0.68020739987E+02  0.31650284949E+02  0.87966819585E+02  0.00000000000E+00 0. -1.
          5    1    4    4  501    0  0.25910316339E+03  0.34559140849E+02  0.85325305438E+03  0.89240778140E+03  0.47000000000E+01 0.  1.
         -5    1    4    4    0  501 -0.13063761335E+02  0.35704131914E+01  0.89705293198E+02  0.90843488145E+02  0.47000000000E+01 0.  1.
          1    1    1    2  502    0 -0.51575943367E+03 -0.85637750599E+02 -0.89174318617E+03  0.10337057259E+04  0.00000000000E+00 0. -1.
          1    1    1    2  503    0 -0.79615170070E+02 -0.94958575501E+02  0.12554637498E+04  0.12615644785E+04  0.00000000000E+00 0. -1.
<mgrwt>
<rscale>  0 0.23758471E+03</rscale>
<asrwt>0</asrwt>
<pdfrwt beam="1">  1        2 0.37265055E+00 0.11676825E+03</pdfrwt>
<pdfrwt beam="2">  1        2 0.19551767E+00 0.48340618E+03</pdfrwt>
<totfact> 0.13546109E+01</totfact>
</mgrwt>
</event>
<event>
13    1  0.2101801E-008  0.9687728E+02  0.7546771E-02  0.1297389E+00
          2   -1    0    0  502    0  0.00000000000E+00  0.00000000000E+00  0.16085625496E+04  0.16085625496E+04  0.00000000000E+00 0. -1.
          2   -1    0    0  503    0 -0.00000000000E+00 -0.00000000000E+00 -0.13507733720E+04  0.13507733720E+04  0.00000000000E+00 0. -1.
         24    2    1    2    0    0 -0.71563762752E+01  0.21073125394E+03 -0.39215278874E+03  0.45231519055E+03  0.79663961573E+02 0.  0.
         25    2    1    2    0    0 -0.11111209345E+03 -0.22788341126E+03  0.25793721185E+03  0.38266506043E+03  0.12499678708E+03 0.  0.
         24    2    1    2    0    0  0.21975746842E+03 -0.12284061947E+03 -0.33396076601E+03  0.42586290011E+03  0.80288565429E+02 0.  0.
        -11    1    5    5    0    0  0.79519104407E+01 -0.94711910177E+01  0.23220998672E+01  0.12582864807E+02  0.00000000000E+00 0.  1.
         12    1    5    5    0    0  0.21180555797E+03 -0.11336942846E+03 -0.33628286587E+03  0.41328003530E+03  0.00000000000E+00 0. -1.
        -13    1    3    3    0    0 -0.41550993740E+02  0.10448213716E+03 -0.22081889265E+03  0.24779827566E+03  0.00000000000E+00 0.  1.
         14    1    3    3    0    0  0.34394617464E+02  0.10624911679E+03 -0.17133389609E+03  0.20451691489E+03  0.00000000000E+00 0. -1.
          5    1    4    4  501    0 -0.65807724948E+02 -0.17707555321E+03  0.25085308293E+03  0.31406331754E+03  0.47000000000E+01 0.  1.
         -5    1    4    4    0  501 -0.45304368504E+02 -0.50807858042E+02  0.70841289154E+01  0.68601742885E+02  0.47000000000E+01 0.  1.
          1    1    1    2  502    0 -0.73644511486E+02  0.48040393103E+02  0.12058670720E+04  0.12090685624E+04  0.00000000000E+00 0. -1.
          1    1    1    2  503    0 -0.27844487202E+02  0.91952383684E+02 -0.47990155147E+03  0.48942420806E+03  0.00000000000E+00 0. -1.
<mgrwt>
<rscale>  0 0.92294413E+02</rscale>
<asrwt>0</asrwt>
<pdfrwt beam="1">  1        2 0.23655332E+00 0.87928343E+02</pdfrwt>
<pdfrwt beam="2">  1        2 0.19864314E+00 0.96877280E+02</pdfrwt>
<totfact> 0.42519520E+01</totfact>
</mgrwt>
</event>
<event>
13    1  0.2101801E-008  0.8705165E+02  0.7546771E-02  0.1381232E+00
          2   -1    0    0  502    0  0.00000000000E+00  0.00000000000E+00  0.83698814623E+03  0.83698814623E+03  0.00000000000E+00 0. -1.
          2   -1    0    0  503    0 -0.00000000000E+00 -0.00000000000E+00 -0.11837068135E+04  0.11837068135E+04  0.00000000000E+00 0. -1.
         24    2    1    2    0    0 -0.76063584174E+02 -0.43882844606E+02 -0.47753109970E+03  0.49264124077E+03  0.83355072110E+02 0.  0.
         25    2    1    2    0    0 -0.68474347859E+02  0.48592675796E+02  0.12984886629E+03  0.19883586881E+03  0.12499996077E+03 0.  0.
         24    2    1    2    0    0  0.48692096051E+02 -0.34075875670E+02  0.24200704908E+03  0.26110410991E+03  0.77947795902E+02 0.  0.
        -11    1    5    5    0    0 -0.49396393947E+01  0.20371851635E+02  0.40771948533E+02  0.45845001511E+02  0.00000000000E+00 0.  1.
         12    1    5    5    0    0  0.53631735446E+02 -0.54447727305E+02  0.20123510055E+03  0.21525910840E+03  0.00000000000E+00 0. -1.
        -11    1    3    3    0    0 -0.22020673986E+02 -0.57732350888E+02 -0.30896040060E+03  0.31507850381E+03  0.00000000000E+00 0.  1.
         12    1    3    3    0    0 -0.54042910188E+02  0.13849506281E+02 -0.16857069909E+03  0.17756273696E+03  0.00000000000E+00 0. -1.
          5    1    4    4  501    0 -0.10500951899E+03  0.30331126239E+02  0.91761765861E+02  0.14279106404E+03  0.47000000000E+01 0. -1.
         -5    1    4    4    0  501  0.36535171129E+02  0.18261549557E+02  0.38087100431E+02  0.56044804763E+02  0.47000000000E+01 0. -1.
          1    1    1    2  502    0  0.34459468752E+02 -0.32342740235E+02  0.40927575407E+03  0.41199532849E+03  0.00000000000E+00 0. -1.
          1    1    1    2  503    0  0.61386367230E+02  0.61708784716E+02 -0.65031923704E+03  0.65611841176E+03  0.00000000000E+00 0. -1.
<mgrwt>
<rscale>  0 0.64140946E+02</rscale>
<asrwt>0</asrwt>
<pdfrwt beam="1">  1        2 0.12308649E+00 0.47260002E+02</pdfrwt>
<pdfrwt beam="2">  1        2 0.17407453E+00 0.87051646E+02</pdfrwt>
<totfact> 0.13830367E+02</totfact>
</mgrwt>
</event>
<event>
13    1  0.2101801E-008  0.1286273E+03  0.7546771E-02  0.1438283E+00
          2   -1    0    0  502    0  0.00000000000E+00  0.00000000000E+00  0.91278702659E+03  0.91278702659E+03  0.00000000000E+00 0. -1.
          2   -1    0    0  503    0 -0.00000000000E+00 -0.00000000000E+00 -0.15837654812E+04  0.15837654812E+04  0.00000000000E+00 0. -1.
         24    2    1    2    0    0 -0.15596700578E+03  0.12227779592E+03 -0.58317866936E+03  0.62354623723E+03  0.97133842159E+02 0.  0.
         25    2    1    2    0    0  0.16117751612E+02 -0.28394322932E+03  0.69944943736E+03  0.76533728365E+03  0.12501241109E+03 0.  0.
         24    2    1    2    0    0  0.40804264303E+02  0.68670140379E+02 -0.50955131214E+03  0.52180591447E+03  0.79109395837E+02 0.  0.
        -11    1    5    5    0    0 -0.85066054702E+01  0.11387210356E+02 -0.27521122124E+03  0.27557802378E+03  0.00000000000E+00 0.  1.
         12    1    5    5    0    0  0.49310869773E+02  0.57282930023E+02 -0.23434009090E+03  0.24622789069E+03  0.00000000000E+00 0. -1.
        -13    1    3    3    0    0 -0.15599599693E+02  0.22012336367E+02 -0.17517529941E+02  0.32167597332E+02  0.00000000000E+00 0.  1.
         14    1    3    3    0    0 -0.14036740609E+03  0.10026545955E+03 -0.56566113942E+03  0.59137863989E+03  0.00000000000E+00 0. -1.
          5    1    4    4  501    0 -0.21171495781E+02 -0.25525350057E+03  0.64008166744E+03  0.68944123229E+03  0.47000000000E+01 0. -1.
         -5    1    4    4    0  501  0.37289247393E+02 -0.28689728748E+02  0.59367769917E+02  0.75896051358E+02  0.47000000000E+01 0. -1.
          1    1    1    2  502    0  0.14675937980E+02  0.14292952357E+02  0.14564519188E+03  0.14707886850E+03  0.00000000000E+00 0. -1.
          1    1    1    2  503    0  0.84369051885E+02  0.78702340667E+02 -0.42334310238E+03  0.43878420400E+03  0.00000000000E+00 0. -1.
<mgrwt>
<rscale>  0 0.51332676E+02</rscale>
<asrwt>0</asrwt>
<pdfrwt beam="1">  1        2 0.13423339E+00 0.20485889E+02</pdfrwt>
<pdfrwt beam="2">  1        2 0.23290669E+00 0.12862725E+03</pdfrwt>
<totfact> 0.78742692E+01</totfact>
</mgrwt>
</event>
<event>
13    1  0.2101801E-008  0.5372819E+02  0.7546771E-02  0.1463150E+00
          2   -1    0    0  502    0  0.00000000000E+00  0.00000000000E+00  0.19095015096E+04  0.19095015096E+04  0.00000000000E+00 0. -1.
          2   -1    0    0  503    0 -0.00000000000E+00 -0.00000000000E+00 -0.33017897594E+03  0.33017897594E+03  0.00000000000E+00 0. -1.
         24    2    1    2    0    0 -0.10847475214E+02  0.74148961304E+01 -0.26832964480E+03  0.28029444500E+03  0.79947040094E+02 0.  0.
         25    2    1    2    0    0 -0.17083135338E+02  0.57926209185E+02  0.11482183408E+04  0.11565809165E+04  0.12500711623E+03 0.  0.
         24    2    1    2    0    0 -0.45540203220E+02 -0.72941041823E+01  0.17341142637E+03  0.19658872111E+03  0.80302480691E+02 0.  0.
        -13    1    5    5    0    0 -0.51948389200E+01 -0.39669375836E+02  0.89147423286E+02  0.97713401380E+02  0.00000000000E+00 0.  1.
         14    1    5    5    0    0 -0.40345364300E+02  0.32375271654E+02  0.84264003084E+02  0.98875319726E+02  0.00000000000E+00 0. -1.
        -13    1    3    3    0    0 -0.38036360613E+02  0.13690962391E+02 -0.77250138132E+02  0.87188250477E+02  0.00000000000E+00 0.  1.
         14    1    3    3    0    0  0.27188885399E+02 -0.62760662608E+01 -0.19107950667E+03  0.19310619453E+03  0.00000000000E+00 0. -1.
          5    1    4    4  501    0  0.37791438272E+02 -0.21001723590E+01  0.69871525815E+03  0.69975546122E+03  0.47000000000E+01 0.  1.
         -5    1    4    4    0  501 -0.54874573610E+02  0.60026381544E+02  0.44950308261E+03  0.45682545528E+03  0.47000000000E+01 0.  1.
          1    1    1    2  502    0  0.34544654125E+02 -0.21787169448E+02  0.54737253600E+03  0.54889407635E+03  0.00000000000E+00 0. -1.
          1    1    1    2  503    0  0.38926159646E+02 -0.36259831685E+02 -0.21350124702E+02  0.57322326570E+02  0.00000000000E+00 0. -1.
<mgrwt>
<rscale>  0 0.46843682E+02</rscale>
<asrwt>0</asrwt>
<pdfrwt beam="1">  1        2 0.28080904E+00 0.40841326E+02</pdfrwt>
<pdfrwt beam="2">  1        2 0.48555733E-01 0.53728192E+02</pdfrwt>
<totfact> 0.17722482E+02</totfact>
</mgrwt>
</event>
<event>
13    1  0.2101801E-008  0.1052586E+03  0.7546771E-02  0.1345060E+00
         -1   -1    0    0    0  501 -0.00000000000E+00  0.00000000000E+00  0.11027858635E+04  0.11027858635E+04  0.00000000000E+00 0.  1.
          2   -1    0    0  503    0  0.00000000000E+00 -0.00000000000E+00 -0.56307779659E+03  0.56307779659E+03  0.00000000000E+00 0. -1.
         24    2    1    2    0    0 -0.54113635864E+00  0.27921075368E+02  0.60401348344E+03  0.60809122639E+03  0.64519548603E+02 0.  0.
         25    2    1    2    0    0  0.50685590147E+02 -0.94736730624E+02 -0.73970210752E+02  0.18066704772E+03  0.12499965151E+03 0.  0.
         24    2    1    2    0    0 -0.27622930127E+02 -0.35142434004E+02  0.36242636869E+02  0.10051296759E+03  0.82409410811E+02 0.  0.
        -11    1    5    5    0    0 -0.36833186185E+02 -0.29220232103E+02 -0.14027562122E+02  0.49064020093E+02  0.00000000000E+00 0.  1.
         12    1    5    5    0    0  0.92102560576E+01 -0.59222019014E+01  0.50270198991E+02  0.51448947498E+02  0.00000000000E+00 0. -1.
        -13    1    3    3    0    0 -0.94457814504E+01 -0.18668901614E+02  0.25711242306E+03  0.25796230105E+03  0.00000000000E+00 0.  1.
         14    1    3    3    0    0  0.89046450918E+01  0.46589976982E+02  0.34690106038E+03  0.35012892533E+03  0.00000000000E+00 0. -1.
          5    1    4    4  502    0  0.74410105808E+01 -0.11558014406E+03 -0.44633011389E+02  0.12421084512E+03  0.47000000000E+01 0.  1.
         -5    1    4    4    0  502  0.43244579567E+02  0.20843413440E+02 -0.29337199363E+02  0.56456202602E+02  0.47000000000E+01 0.  1.
          1    1    1    2  503    0 -0.70016467959E+02  0.78672394318E+02 -0.39274692776E+03  0.40662243012E+03  0.00000000000E+00 0. -1.
         -2    1    1    2    0  501  0.47494944297E+02  0.23285694942E+02  0.36616908509E+03  0.36996998824E+03  0.00000000000E+00 0.  1.
<mgrwt>
<rscale>  0 0.74617475E+02</rscale>
<asrwt>0</asrwt>
<pdfrwt beam="2">  1        2 0.82805558E-01 0.10525864E+03</pdfrwt>
<pdfrwt beam="1">  1       -1 0.16217439E+00 0.52896062E+02</pdfrwt>
<totfact> 0.23130603E+01</totfact>
</mgrwt>
</event>
<event>
13    1  0.2101801E-008  0.1320083E+03  0.7546771E-02  0.1390908E+00
          2   -1    0    0  503    0  0.00000000000E+00  0.00000000000E+00  0.28308761412E+04  0.28308761412E+04  0.00000000000E+00 0. -1.
          2   -1    0    0  502    0 -0.00000000000E+00 -0.00000000000E+00 -0.59814371725E+03  0.59814371725E+03  0.00000000000E+00 0. -1.
         24    2    1    2    0    0  0.79796714033E+02  0.61291468753E+02 -0.41789196947E+03  0.43735666506E+03  0.80765058106E+02 0.  0.
         25    2    1    2    0    0 -0.68485749470E+02  0.10170799102E+03  0.13599773393E+04  0.13711998194E+04  0.12496306715E+03 0.  0.
         24    2    1    2    0    0 -0.40634158990E+02 -0.49948549030E+02  0.24614880539E+02  0.11092272632E+03  0.86902050853E+02 0.  0.
        -11    1    3    3    0    0  0.12827881350E+01  0.43270086185E+02 -0.20973910002E+03  0.21415983746E+03  0.00000000000E+00 0.  1.
         12    1    3    3    0    0  0.78513925898E+02  0.18021382568E+02 -0.20815286946E+03  0.22319682761E+03  0.00000000000E+00 0. -1.
        -13    1    5    5    0    0 -0.44762729304E+02 -0.72385899226E+02  0.16394871621E+02  0.86673018622E+02  0.00000000000E+00 0.  1.
         14    1    5    5    0    0  0.41285703137E+01  0.22437350196E+02  0.82200089179E+01  0.24249707695E+02  0.00000000000E+00 0. -1.
          5    1    4    4  501    0 -0.14175430033E+02  0.88956239031E+02  0.42098133089E+03  0.43053632395E+03  0.47000000000E+01 0. -1.
         -5    1    4    4    0  501 -0.54310319437E+02  0.12751751990E+02  0.93899600840E+03  0.94066349550E+03  0.47000000000E+01 0. -1.
          1    1    1    2  502    0  0.64856669450E+01  0.28081639543E+02 -0.11630862070E+03  0.11982628094E+03  0.00000000000E+00 0. -1.
          1    1    1    2  503    0  0.22837527483E+02 -0.14113255029E+03  0.13823407943E+04  0.13897143667E+04  0.00000000000E+00 0. -1.
<mgrwt>
<rscale>  0 0.61681389E+02</rscale>
<asrwt>0</asrwt>
<pdfrwt beam="1">  1        2 0.41630531E+00 0.13200830E+03</pdfrwt>
<pdfrwt beam="2">  1        2 0.87962312E-01 0.28820867E+02</pdfrwt>
<totfact> 0.29611513E+01</totfact>
</mgrwt>
</event>
<event>
13    1  0.2101801E-008  0.4546009E+02  0.7546771E-02  0.1540167E+00
          2   -1    0    0  503    0  0.00000000000E+00  0.00000000000E+00  0.39170236066E+04  0.39170236066E+04  0.00000000000E+00 0. -1.
          2   -1    0    0  502    0 -0.00000000000E+00 -0.00000000000E+00 -0.30594804568E+04  0.30594804568E+04  0.00000000000E+00 0. -1.
         24    2    1    2    0    0  0.92563722509E+03  0.20841237605E+03 -0.90907500187E+03  0.13164753490E+04  0.80311858452E+02 0.  0.
         25    2    1    2    0    0  0.32719255742E+03 -0.48908710302E+03  0.12265697864E+04  0.13661485063E+04  0.12500854560E+03 0.  0.
         24    2    1    2    0    0 -0.12150509181E+04  0.34281223139E+03  0.40363305278E+03  0.13274564750E+04  0.73157994575E+02 0.  0.
        -11    1    5    5    0    0 -0.42047794833E+03  0.83149838177E+02  0.13082892524E+03  0.44814262049E+03  0.00000000000E+00 0.  1.
         12    1    5    5    0    0 -0.79457296977E+03  0.25966239322E+03  0.27280412754E+03  0.87931385452E+03  0.00000000000E+00 0. -1.
        -13    1    3    3    0    0  0.82862938996E+03  0.16774912845E+03 -0.83114370844E+03  0.11855658143E+04  0.00000000000E+00 0.  1.
         14    1    3    3    0    0  0.97007835136E+02  0.40663247597E+02 -0.77931293428E+02  0.13090953471E+03  0.00000000000E+00 0. -1.
          5    1    4    4  501    0  0.89534725100E+00  0.19636881413E+01 -0.65278195023E-01  0.51722315357E+01  0.47000000000E+01 0. -1.
         -5    1    4    4    0  501  0.32629721017E+03 -0.49105079116E+03  0.12266350646E+04  0.13609762748E+04  0.47000000000E+01 0. -1.
          1    1    1    2  502    0 -0.28872299634E+02 -0.35108949045E+02 -0.14145085809E+04  0.14152387690E+04  0.00000000000E+00 0. -1.
          1    1    1    2  503    0 -0.89065647745E+01 -0.27028555381E+02  0.15509238933E+04  0.15511849640E+04  0.00000000000E+00 0. -1.
<mgrwt>
<rscale>  0 0.35968221E+02</rscale>
<asrwt>0</asrwt>
<pdfrwt beam="1">  1        2 0.57603289E+00 0.28458210E+02</pdfrwt>
<pdfrwt beam="2">  1        2 0.44992359E+00 0.45460095E+02</pdfrwt>
<totfact> 0.52867813E-01</totfact>
</mgrwt>
</event>
<event>
13    1  0.2101801E-008  0.1065631E+03  0.7546771E-02  0.1286390E+00
          2   -1    0    0  503    0  0.00000000000E+00  0.00000000000E+00  0.28445266926E+04  0.28445266926E+04  0.00000000000E+00 0. -1.
          2   -1    0    0  502    0 -0.00000000000E+00 -0.00000000000E+00 -0.13873034575E+04  0.13873034575E+04  0.00000000000E+00 0. -1.
         24    2    1    2    0    0 -0.25578027819E+02 -0.45086473156E+02  0.10720039577E+03  0.14358324650E+03  0.80232152236E+02 0.  0.
         25    2    1    2    0    0  0.84979176909E+00  0.52730883865E+02  0.10211329463E+03  0.16980432746E+03  0.12500046570E+03 0.  0.
         24    2    1    2    0    0  0.37782854967E+02 -0.33126019377E+02  0.13606456233E+04  0.13650126361E+04  0.96840627913E+02 0.  0.
        -13    1    3    3    0    0 -0.33908244931E+02  0.12632468941E+02  0.31140182256E+02  0.47739494099E+02  0.00000000000E+00 0.  1.
         14    1    3    3    0    0  0.83302171118E+01 -0.57718942097E+02  0.76060213512E+02  0.95843752397E+02  0.00000000000E+00 0. -1.
        -13    1    5    5    0    0 -0.30589421605E+02 -0.15396589318E+02  0.63945061792E+03  0.64036697325E+03  0.00000000000E+00 0.  1.
         14    1    5    5    0    0  0.68372276573E+02 -0.17729430059E+02  0.72119500535E+03  0.72464566281E+03  0.00000000000E+00 0. -1.
          5    1    4    4  501    0  0.17462317351E+02  0.79460567459E+01  0.11769508163E+03  0.11934108507E+03  0.47000000000E+01 0. -1.
         -5    1    4    4    0  501 -0.16612525582E+02  0.44784827119E+02 -0.15581787007E+02  0.50463242391E+02  0.47000000000E+01 0. -1.
          1    1    1    2  502    0 -0.10662364935E+03  0.28114765487E+01 -0.13290442693E+04  0.13333173579E+04  0.00000000000E+00 0. -1.
          1    1    1    2  503    0  0.93569030435E+02  0.22670132120E+02  0.12163081908E+04  0.12201125822E+04  0.00000000000E+00 0. -1.
<mgrwt>
<rscale>  0 0.97157366E+02</rscale>
<asrwt>0</asrwt>
<pdfrwt beam="1">  1        2 0.41831275E+00 0.88581805E+02</pdfrwt>
<pdfrwt beam="2">  1        2 0.20401521E+00 0.10656312E+03</pdfrwt>
<totfact> 0.10054525E+01</totfact>
</mgrwt>
</event>
<event>
13    1  0.2101801E-008  0.1060910E+03  0.7546771E-02  0.1382529E+00
          2   -1    0    0  503    0  0.00000000000E+00  0.00000000000E+00  0.30914727654E+04  0.30914727654E+04  0.00000000000E+00 0. -1.
          2   -1    0    0  502    0 -0.00000000000E+00 -0.00000000000E+00 -0.33557995311E+03  0.33557995311E+03  0.00000000000E+00 0. -1.
         24    2    1    2    0    0 -0.40272405268E+02 -0.40430733674E+02  0.10653962543E+04  0.10715507029E+04  0.99474716616E+02 0.  0.
         25    2    1    2    0    0 -0.12383041991E+03  0.31532945316E+02 -0.13185831659E+03  0.22212241353E+03  0.12499380547E+03 0.  0.
         24    2    1    2    0    0  0.45160982916E+02 -0.15630033926E+02  0.30259651556E+00  0.92417497307E+02  0.79101769293E+02 0.  0.
        -11    1    3    3    0    0 -0.31075792270E+02 -0.24347212185E+02  0.12750903724E+03  0.13348050863E+03  0.00000000000E+00 0.  1.
         12    1    3    3    0    0 -0.91966129975E+01 -0.16083521489E+02  0.93788721710E+03  0.93807019426E+03  0.00000000000E+00 0. -1.
        -13    1    5    5    0    0  0.26447597961E+02 -0.47721436791E+02  0.57855194936E+01  0.54866047818E+02  0.00000000000E+00 0.  1.
         14    1    5    5    0    0  0.18713384954E+02  0.32091402865E+02 -0.54829229781E+01  0.37551449489E+02  0.00000000000E+00 0. -1.
          5    1    4    4  501    0 -0.10059849443E+03 -0.35024311675E+02 -0.65146215667E+02  0.12495150622E+03  0.47000000000E+01 0.  1.
         -5    1    4    4    0  501 -0.23231925473E+02  0.66557256991E+02 -0.66712100919E+02  0.97170907315E+02  0.47000000000E+01 0.  1.
          1    1    1    2  502    0 -0.21587894024E+01  0.38311104407E+02 -0.10410546045E+03  0.11095200758E+03  0.00000000000E+00 0. -1.
          1    1    1    2  503    0  0.12110063166E+03 -0.13783282124E+02  0.19261577384E+04  0.19300100972E+04  0.00000000000E+00 0. -1.
<mgrwt>
<rscale>  0 0.63803689E+02</rscale>
<asrwt>0</asrwt>
<pdfrwt beam="1">  1        2 0.45462833E+00 0.10609099E+03</pdfrwt>
<pdfrwt beam="2">  1        2 0.49349995E-01 0.38371879E+02</pdfrwt>
<totfact> 0.39986730E+01</totfact>
</mgrwt>
</event>
<event>
13    1  0.2101801E-008  0.7268138E+02  0.7546771E-02  0.1457128E+00
          2   -1    0    0  503    0  0.00000000000E+00  0.00000000000E+00  0.18311155463E+04  0.18311155463E+04  0.00000000000E+00 0. -1.
         -3   -1    0    0    0  501 -0.00000000000E+00 -0.00000000000E+00 -0.21269695529E+03  0.21269695529E+03  0.00000000000E+00 0.  1.
         24    2    1    2    0    0  0.95285519221E+02 -0.44111776281E+02  0.18688300582E+02  0.12762518124E+03  0.70098183496E+02 0.  0.
         25    2    1    2    0    0 -0.99560625887E+02  0.63301747457E+02  0.14755506078E+03  0.22653151975E+03  0.12499841608E+03 0.  0.
         24    2    1    2    0    0 -0.24532180577E+02 -0.50346582326E+02  0.90702370984E+02  0.13432584514E+03  0.81730693953E+02 0.  0.
        -11    1    3    3    0    0  0.10659002172E+03 -0.42272093725E+02  0.18642452204E+02  0.11617187121E+03  0.00000000000E+00 0.  1.
         12    1    3    3    0    0 -0.11304502496E+02 -0.18396825554E+01  0.45848378551E-01  0.11453310030E+02  0.00000000000E+00 0. -1.
        -13    1    5    5    0    0 -0.46401610593E+02 -0.56666229439E+01  0.28774090988E+02  0.54892334560E+02  0.00000000000E+00 0.  1.
         14    1    5    5    0    0  0.21869430016E+02 -0.44679959382E+02  0.61928279995E+02  0.79433510578E+02  0.00000000000E+00 0. -1.
          5    1    4    4  502    0 -0.44274238844E+02  0.76438539353E+02  0.25894831686E+02  0.92172071865E+02  0.47000000000E+01 0.  1.
         -5    1    4    4    0  502 -0.55286387042E+02 -0.13136791896E+02  0.12166022909E+03  0.13435944789E+03  0.47000000000E+01 0.  1.
          1    1    1    2  503    0 -0.18289294533E+02 -0.25696518165E+02  0.14441465047E+04  0.14444908917E+04  0.00000000000E+00 0. -1.
         -4    1    1    2    0  501  0.47096581776E+02  0.56853129313E+02 -0.82673645940E+02  0.11083906379E+03  0.00000000000E+00 0.  1.
<mgrwt>
<rscale>  0 0.47879162E+02</rscale>
<asrwt>0</asrwt>
<pdfrwt beam="1">  1        2 0.26928169E+00 0.31540598E+02</pdfrwt>
<pdfrwt beam="2">  1       -3 0.31278965E-01 0.72681377E+02</pdfrwt>
<totfact> 0.71142655E+01</totfact>
</mgrwt>
</event>
<event>
13    1  0.2101801E-008  0.1140526E+03  0.7546771E-02  0.1318440E+00
          2   -1    0    0  503    0  0.00000000000E+00  0.00000000000E+00  0.84751922690E+03  0.84751922690E+03  0.00000000000E+00 0. -1.
          2   -1    0    0  502    0 -0.00000000000E+00 -0.00000000000E+00 -0.14224175446E+04  0.14224175446E+04  0.00000000000E+00 0. -1.
         24    2    1    2    0    0  0.59805602300E+02  0.36241149923E+02  0.39902597615E+02  0.11340972549E+03  0.79871255944E+02 0.  0.
         25    2    1    2    0    0 -0.16943818761E+03 -0.17745240025E+03  0.53388858746E+02  0.28047359269E+03  0.12496564402E+03 0.  0.
         24    2    1    2    0    0  0.32221478761E+02  0.40526153604E+02  0.15145818864E+03  0.17698089914E+03  0.75512005242E+02 0.  0.
        -11    1    3    3    0    0  0.29235140772E+02  0.59685663098E+02  0.33249393340E+02  0.74314157419E+02  0.00000000000E+00 0.  1.
         12    1    3    3    0    0  0.30570461528E+02 -0.23444513175E+02  0.66532042758E+01  0.39095568076E+02  0.00000000000E+00 0. -1.
        -11    1    5    5    0    0  0.27031703056E+02  0.41900955621E+02  0.36250565423E+02  0.61648248520E+02  0.00000000000E+00 0.  1.
         12    1    5    5    0    0  0.51897757054E+01 -0.13748020169E+01  0.11520762322E+03  0.11533265062E+03  0.00000000000E+00 0. -1.
          5    1    4    4  501    0 -0.38477474212E+02 -0.70132297118E+02  0.74954487042E+02  0.10972383628E+03  0.47000000000E+01 0. -1.
         -5    1    4    4    0  501 -0.13096071340E+03 -0.10732010313E+03 -0.21565628296E+02  0.17074975641E+03  0.47000000000E+01 0. -1.
          1    1    1    2  502    0  0.61344070950E+02  0.62388560331E+01 -0.12533750284E+04  0.12548908240E+04  0.00000000000E+00 0. -1.
          1    1    1    2  503    0  0.16067035599E+02  0.94446240687E+02  0.43372706563E+03  0.44418173024E+03  0.00000000000E+00 0. -1.
<mgrwt>
<rscale>  0 0.83860260E+02</rscale>
<asrwt>0</asrwt>
<pdfrwt beam="1">  1        2 0.12463518E+00 0.11405263E+03</pdfrwt>
<pdfrwt beam="2">  1        2 0.20917905E+00 0.61660509E+02</pdfrwt>
<totfact> 0.10201651E+02</totfact>
</mgrwt>
</event>
<event>
13    1  0.2101801E-008  0.9164988E+02  0.7546771E-02  0.1363876E+00
         -3   -1    0    0    0  501 -0.00000000000E+00  0.00000000000E+00  0.66512462492E+03  0.66512462492E+03  0.00000000000E+00 0.  1.
          2   -1    0    0  503    0  0.00000000000E+00 -0.00000000000E+00 -0.82801291736E+03  0.82801291736E+03  0.00000000000E+00 0. -1.
         24    2    1    2    0    0  0.15937294111E+02 -0.29318634080E+02  0.11432417195E+03  0.14404134747E+03  0.81020453215E+02 0.  0.
         25    2    1    2    0    0  0.10112980115E+03 -0.86159459412E+02 -0.13526562683E+03  0.22708485216E+03  0.12498020304E+03 0.  0.
         24    2    1    2    0    0 -0.44278365052E+01  0.94730806096E+02 -0.18793187206E+03  0.22536536868E+03  0.80483721994E+02 0.  0.
        -13    1    3    3    0    0  0.39770938876E+02 -0.23769584396E+02  0.27599033309E+02  0.53929837391E+02  0.00000000000E+00 0.  1.
         14    1    3    3    0    0 -0.23833644765E+02 -0.55490496842E+01  0.86725138643E+02  0.90111510074E+02  0.00000000000E+00 0. -1.
        -13    1    5    5    0    0  0.83750004345E+00 -0.11720654943E+02 -0.48276352842E+02  0.49685826976E+02  0.00000000000E+00 0.  1.
         14    1    5    5    0    0 -0.52653365486E+01  0.10645146104E+03 -0.13965551922E+03  0.17567954171E+03  0.00000000000E+00 0. -1.
          5    1    4    4  502    0 -0.29132682395E+02 -0.16160698483E+02 -0.33736043290E+02  0.47645482219E+02  0.47000000000E+01 0.  1.
         -5    1    4    4    0  502  0.13026248354E+03 -0.69998760929E+02 -0.10152958354E+03  0.17943936994E+03  0.47000000000E+01 0.  1.
          1    1    1    2  503    0 -0.17674345421E+02  0.48687704316E+02 -0.41851860477E+03  0.42171162846E+03  0.00000000000E+00 0. -1.
         -4    1    1    2    0  501 -0.94964913331E+02 -0.27940416920E+02  0.46450363927E+03  0.47493434552E+03  0.00000000000E+00 0.  1.
<mgrwt>
<rscale>  0 0.68899499E+02</rscale>
<asrwt>0</asrwt>
<pdfrwt beam="2">  1        2 0.12176661E+00 0.51796477E+02</pdfrwt>
<pdfrwt beam="1">  1       -3 0.97812445E-01 0.91649880E+02</pdfrwt>
<totfact> 0.22255546E+01</totfact>
</mgrwt>
</event>
<event>
13    1  0.2101801E-008  0.6191540E+02  0.7546771E-02  0.1409708E+00
          2   -1    0    0  502    0  0.00000000000E+00  0.00000000000E+00  0.19101612491E+04  0.19101612491E+04  0.00000000000E+00 0. -1.
          2   -1    0    0  503    0 -0.00000000000E+00 -0.00000000000E+00 -0.69034622457E+03  0.69034622457E+03  0.00000000000E+00 0. -1.
         24    2    1    2    0    0 -0.56869195116E+02 -0.70744714491E+02  0.24061953680E+03  0.26963651168E+03  0.81038058696E+02 0.  0.
         25    2    1    2    0    0  0.72993885718E+02  0.12807109548E+03  0.70948051626E+03  0.73533546812E+03  0.12500133947E+03 0.  0.
         24    2    1    2    0    0 -0.50199544684E+02  0.11369961657E+02  0.32254285896E+03  0.33657141439E+03  0.81222846549E+02 0.  0.
        -11    1    5    5    0    0  0.89731517096E-01 -0.24368175930E+02  0.36066042861E+02  0.43526721650E+02  0.00000000000E+00 0.  1.
         12    1    5    5    0    0 -0.50289276201E+02  0.35738137587E+02  0.28647681610E+03  0.29304469274E+03  0.00000000000E+00 0. -1.
        -13    1    3    3    0    0 -0.36798819610E+02 -0.84619009455E+02  0.15289117120E+03  0.17857838647E+03  0.00000000000E+00 0.  1.
         14    1    3    3    0    0 -0.20070375506E+02  0.13874294964E+02  0.87728365608E+02  0.91058125206E+02  0.00000000000E+00 0. -1.
          5    1    4    4  501    0 -0.33316740244E+02  0.13425581639E+02  0.15805174023E+03  0.16215022052E+03  0.47000000000E+01 0. -1.
         -5    1    4    4    0  501  0.10631062596E+03  0.11464551384E+03  0.55142877603E+03  0.57318524760E+03  0.47000000000E+01 0. -1.
          1    1    1    2  502    0 -0.23997466077E+02 -0.47202921552E+02  0.60043878150E+03  0.60276921330E+03  0.00000000000E+00 0. -1.
          1    1    1    2  503    0  0.58072320159E+02 -0.21493421090E+02 -0.65326666902E+03  0.65619486615E+03  0.00000000000E+00 0. -1.
<mgrwt>
<rscale>  0 0.57258982E+02</rscale>
<asrwt>0</asrwt>
<pdfrwt beam="1">  1        2 0.28090607E+00 0.52952754E+02</pdfrwt>
<pdfrwt beam="2">  1        2 0.10152150E+00 0.61915401E+02</pdfrwt>
<totfact> 0.78924266E+01</totfact>
</mgrwt>
</event>
<event>
13    1  0.2101801E-008  0.1391689E+03  0.7546771E-02  0.1344578E+00
          2   -1    0    0  503    0  0.00000000000E+00  0.00000000000E+00  0.34334539291E+04  0.34334539291E+04  0.00000000000E+00 0. -1.
          2   -1    0    0  502    0 -0.00000000000E+00 -0.00000000000E+00 -0.84681761930E+03  0.84681761930E+03  0.00000000000E+00 0. -1.
         24    2    1    2    0    0  0.13387896869E+03  0.17226821295E+03 -0.39359804319E+03  0.45374395086E+03  0.58002050766E+02 0.  0.
         25    2    1    2    0    0  0.47062152081E+03 -0.25193590950E+03  0.12155599541E+04  0.13334792992E+04  0.12499888351E+03 0.  0.
         24    2    1    2    0    0 -0.51369790539E+03  0.21456710307E+03  0.86991084720E+03  0.10360745506E+04  0.82346904571E+02 0.  0.
        -11    1    5    5    0    0 -0.11214733265E+03  0.20018458987E+02  0.21986787157E+03  0.24762803530E+03  0.00000000000E+00 0.  1.
         12    1    5    5    0    0 -0.40155057274E+03  0.19454864408E+03  0.65004297563E+03  0.78844651534E+03  0.00000000000E+00 0. -1.
        -13    1    3    3    0    0  0.65437445391E+02  0.11761887189E+03 -0.27645544581E+03  0.30747987219E+03  0.00000000000E+00 0.  1.
         14    1    3    3    0    0  0.68441523299E+02  0.54649341061E+02 -0.11714259738E+03  0.14626407868E+03  0.00000000000E+00 0. -1.
          5    1    4    4  501    0  0.37725537294E+02 -0.50959412219E+02  0.22684199211E+03  0.23558322785E+03  0.47000000000E+01 0. -1.
         -5    1    4    4    0  501  0.43289598351E+03 -0.20097649728E+03  0.98871796203E+03  0.10978960713E+04  0.47000000000E+01 0. -1.
          1    1    1    2  502    0  0.98114596132E+01 -0.38956705281E+02 -0.27553403057E+03  0.27844728698E+03  0.00000000000E+00 0. -1.
          1    1    1    2  503    0 -0.10061404372E+03 -0.95942701237E+02  0.11702975822E+04  0.11785264607E+04  0.00000000000E+00 0. -1.
<mgrwt>
<rscale>  0 0.74772104E+02</rscale>
<asrwt>0</asrwt>
<pdfrwt beam="1">  1        2 0.50491969E+00 0.13916893E+03</pdfrwt>
<pdfrwt beam="2">  1        2 0.12453200E+00 0.40173245E+02</pdfrwt>
<totfact> 0.91983269E+00</totfact>
</mgrwt>
</event>
<event>
13    1  0.2101801E-008  0.1036312E+03  0.7546771E-02  0.1285092E+00
          2   -1    0    0  503    0  0.00000000000E+00  0.00000000000E+00  0.18284958684E+04  0.18284958684E+04  0.00000000000E+00 0. -1.
          2   -1    0    0  502    0 -0.00000000000E+00 -0.00000000000E+00 -0.60344718229E+03  0.60344718229E+03  0.00000000000E+00 0. -1.
         24    2    1    2    0    0 -0.35558416963E+02 -0.72363363697E+01 -0.98357692044E+02  0.12915151171E+03  0.75426201091E+02 0.  0.
         25    2    1    2    0    0  0.37451841218E+02  0.41607101986E+02 -0.76437577853E+02  0.15684897451E+03  0.12500042460E+03 0.  0.
         24    2    1    2    0    0  0.66922358146E+02 -0.51179810886E+02  0.24087270395E+03  0.26742944506E+03  0.80005459278E+02 0.  0.
        -11    1    3    3    0    0 -0.55809828921E+02  0.35325127599E+01 -0.47542454913E+02  0.73399595842E+02  0.00000000000E+00 0.  1.
         12    1    3    3    0    0  0.20251411958E+02 -0.10768849130E+02 -0.50815237131E+02  0.55751915865E+02  0.00000000000E+00 0. -1.
        -13    1    5    5    0    0 -0.49802210779E+01  0.34479146451E+01  0.99462682986E+02  0.99646956924E+02  0.00000000000E+00 0.  1.
         14    1    5    5    0    0  0.71902579224E+02 -0.54627725531E+02  0.14141002096E+03  0.16778248813E+03  0.00000000000E+00 0. -1.
          5    1    4    4  501    0  0.60037657630E+02  0.74693687845E+02 -0.60798969234E+02  0.11358816839E+03  0.47000000000E+01 0. -1.
         -5    1    4    4    0  501 -0.22585816411E+02 -0.33086585859E+02 -0.15638608619E+02  0.43260806122E+02  0.47000000000E+01 0. -1.
          1    1    1    2  502    0 -0.29405789776E+02 -0.79856210485E+02 -0.35291366243E+03  0.36302860487E+03  0.00000000000E+00 0. -1.
          1    1    1    2  503    0 -0.39409992625E+02  0.96665255755E+02  0.15118849145E+04  0.15154845146E+04  0.00000000000E+00 0. -1.
<mgrwt>
<rscale>  0 0.97753537E+02</rscale>
<asrwt>0</asrwt>
<pdfrwt beam="1">  1        2 0.26889645E+00 0.10363119E+03</pdfrwt>
<pdfrwt beam="2">  1        2 0.88742233E-01 0.92209247E+02</pdfrwt>
<totfact> 0.92878002E+01</totfact>
</mgrwt>
</event>
<event>
13    1  0.2101801E-008  0.3604251E+03  0.7546771E-02  0.1257447E+00
         -3   -1    0    0    0  501 -0.00000000000E+00  0.00000000000E+00  0.55905160009E+03  0.55905160009E+03  0.00000000000E+00 0.  1.
          2   -1    0    0  503    0  0.00000000000E+00 -0.00000000000E+00 -0.28633095132E+04  0.28633095132E+04  0.00000000000E+00 0. -1.
         24    2    1    2    0    0 -0.37247579653E+03 -0.10703088337E+03 -0.44580413973E+03  0.59602363002E+03  0.79429261273E+02 0.  0.
         25    2    1    2    0    0 -0.43067150842E+02  0.56260318961E+02 -0.11705385210E+04  0.11793245438E+04  0.12500378928E+03 0.  0.
         24    2    1    2    0    0  0.55151981191E+02  0.70402488654E+02 -0.12218197355E+03  0.17171902231E+03  0.80998373589E+02 0.  0.
        -11    1    5    5    0    0  0.12507422864E+02 -0.18324618155E+02 -0.24006410833E+02  0.32688453898E+02  0.00000000000E+00 0.  1.
         12    1    5    5    0    0  0.42644558327E+02  0.88727106809E+02 -0.98175562717E+02  0.13903056841E+03  0.00000000000E+00 0. -1.
        -11    1    3    3    0    0 -0.25674046108E+03 -0.99088436617E+02 -0.27103122422E+03  0.38625394125E+03  0.00000000000E+00 0.  1.
         12    1    3    3    0    0 -0.11573533545E+03 -0.79424467512E+01 -0.17477291551E+03  0.20976968877E+03  0.00000000000E+00 0. -1.
          5    1    4    4  502    0 -0.38709691849E+02  0.31482048121E+02 -0.11317139063E+04  0.11328230291E+04  0.47000000000E+01 0.  1.
         -5    1    4    4    0  502 -0.43574589935E+01  0.24778270840E+02 -0.38824614718E+02  0.46501514629E+02  0.47000000000E+01 0.  1.
          1    1    1    2  503    0  0.35161705906E+01  0.34440365561E+02 -0.94852917311E+03  0.94916073164E+03  0.00000000000E+00 0. -1.
         -4    1    1    2    0  501  0.35687479559E+03 -0.54072289808E+02  0.38279589431E+03  0.52613318557E+03  0.00000000000E+00 0.  1.
<mgrwt>
<rscale>  0 0.11170361E+03</rscale>
<asrwt>0</asrwt>
<pdfrwt beam="2">  1        2 0.42107494E+00 0.34619391E+02</pdfrwt>
<pdfrwt beam="1">  1       -3 0.82213469E-01 0.36042507E+03</pdfrwt>
<totfact> 0.35205422E+00</totfact>
</mgrwt>
</event>
<event>
13    1  0.2101801E-008  0.1400149E+03  0.7546771E-02  0.1346328E+00
          2   -1    0    0  502    0  0.00000000000E+00  0.00000000000E+00  0.10924138937E+04  0.10924138937E+04  0.00000000000E+00 0. -1.
          2   -1    0    0  503    0 -0.00000000000E+00 -0.00000000000E+00 -0.20871859448E+04  0.20871859448E+04  0.00000000000E+00 0. -1.
         24    2    1    2    0    0 -0.23068636094E+02  0.57009707145E+02 -0.27733217749E+02  0.10339459237E+03  0.78352036890E+02 0.  0.
         25    2    1    2    0    0  0.52255662587E+02 -0.25342251356E+03 -0.29142224892E+03  0.40927535818E+03  0.12500306796E+03 0.  0.
         24    2    1    2    0    0 -0.67497960081E+02 -0.46969649093E+02  0.41403278971E+03  0.42988648119E+03  0.81345640348E+02 0.  0.
        -11    1    3    3    0    0  0.22659761514E+02  0.31750444367E+02 -0.32724027556E+02  0.50915788208E+02  0.00000000000E+00 0.  1.
         12    1    3    3    0    0 -0.45728397608E+02  0.25259262778E+02  0.49908098064E+01  0.52478804163E+02  0.00000000000E+00 0. -1.
        -13    1    5    5    0    0 -0.15521685583E+02 -0.46032705917E+02  0.30787155391E+03  0.31168064817E+03  0.00000000000E+00 0.  1.
         14    1    5    5    0    0 -0.51976274498E+02 -0.93694317675E+00  0.10616123581E+03  0.11820583303E+03  0.00000000000E+00 0. -1.
          5    1    4    4  501    0  0.56455333486E+02 -0.83879135741E+02 -0.46643863117E+02  0.11144798813E+03  0.47000000000E+01 0.  1.
         -5    1    4    4    0  501 -0.41996708986E+01 -0.16954337782E+03 -0.24477838580E+03  0.29782737005E+03  0.47000000000E+01 0.  1.
          1    1    1    2  502    0  0.42971267964E+02  0.20432481272E+03  0.55445652343E+03  0.59246704156E+03  0.00000000000E+00 0. -1.
          1    1    1    2  503    0 -0.46603343763E+01  0.39057642790E+02 -0.16441058976E+04  0.16445763651E+04  0.00000000000E+00 0. -1.
<mgrwt>
<rscale>  0 0.74212138E+02</rscale>
<asrwt>0</asrwt>
<pdfrwt beam="1">  1        2 0.16064910E+00 0.14001485E+03</pdfrwt>
<pdfrwt beam="2">  1        2 0.30693911E+00 0.39334694E+02</pdfrwt>
<totfact> 0.36893598E+01</totfact>
</mgrwt>
</event>
<event>
13    1  0.2101801E-008  0.2009814E+03  0.7546771E-02  0.1202384E+00
          2   -1    0    0  503    0  0.00000000000E+00  0.00000000000E+00  0.21097745788E+04  0.21097745788E+04  0.00000000000E+00 0. -1.
          2   -1    0    0  502    0 -0.00000000000E+00 -0.00000000000E+00 -0.26990479150E+04  0.26990479150E+04  0.00000000000E+00 0. -1.
         24    2    1    2    0    0 -0.38715377887E+02 -0.89704626256E+02 -0.15168036003E+04  0.15220776318E+04  0.80506862234E+02 0.  0.
         25    2    1    2    0    0  0.19174314763E+03  0.22562576590E+02 -0.28532958290E+03  0.36648549126E+03  0.12499655957E+03 0.  0.
         24    2    1    2    0    0  0.92926107589E+02 -0.12829653910E+03  0.15610450329E+03  0.23661403742E+03  0.80760902311E+02 0.  0.
        -11    1    5    5    0    0  0.31088111900E+02 -0.33772313112E+02  0.10098555611E+03  0.11092845612E+03  0.00000000000E+00 0.  1.
         12    1    5    5    0    0  0.61837995689E+02 -0.94524225984E+02  0.55118947176E+02  0.12568558130E+03  0.00000000000E+00 0. -1.
        -13    1    3    3    0    0 -0.26662730457E+02  0.47192233559E+01 -0.19795993838E+03  0.19980317682E+03  0.00000000000E+00 0.  1.
         14    1    3    3    0    0 -0.12052647430E+02 -0.94423849612E+02 -0.13188436619E+04  0.13222744549E+04  0.00000000000E+00 0. -1.
          5    1    4    4  501    0  0.85631390734E+02  0.50919093490E+02 -0.21213669135E+03  0.23441321417E+03  0.47000000000E+01 0. -1.
         -5    1    4    4    0  501  0.10611175690E+03 -0.28356516899E+02 -0.73192891543E+02  0.13207227709E+03  0.47000000000E+01 0. -1.
          1    1    1    2  502    0 -0.68430739408E+02  0.85684647014E+02 -0.80388813911E+03  0.81133270921E+03  0.00000000000E+00 0. -1.
          1    1    1    2  503    0 -0.17752313793E+03  0.10975394175E+03  0.18606434828E+04  0.18723126241E+04  0.00000000000E+00 0. -1.
<mgrwt>
<rscale>  0 0.14845535E+03</rscale>
<asrwt>0</asrwt>
<pdfrwt beam="1">  1        2 0.31026097E+00 0.20098144E+03</pdfrwt>
<pdfrwt beam="2">  1        2 0.39691881E+00 0.10965685E+03</pdfrwt>
<totfact> 0.48095136E+00</totfact>
</mgrwt>
</event>
<event>
13    1  0.2101801E-008  0.1577485E+03  0.7546771E-02  0.1211796E+00
         -3   -1    0    0    0  501 -0.00000000000E+00  0.00000000000E+00  0.19872442688E+04  0.19872442688E+04  0.00000000000E+00 0.  1.
          2   -1    0    0  503    0  0.00000000000E+00 -0.00000000000E+00 -0.17201116488E+04  0.17201116488E+04  0.00000000000E+00 0. -1.
         24    2    1    2    0    0 -0.56022968316E+03 -0.10080590906E+03  0.32738141070E+03  0.66145110367E+03  0.79497454575E+02 0.  0.
         25    2    1    2    0    0  0.43963350227E+03  0.99310517197E+01 -0.22199651690E+03  0.50820572860E+03  0.12495746061E+03 0.  0.
         24    2    1    2    0    0 -0.10230175100E+03  0.66692760361E+02  0.37334244543E+03  0.40129266015E+03  0.82083158975E+02 0.  0.
        -11    1    3    3    0    0 -0.10313793732E+03 -0.44434753372E+02  0.86175944005E+02  0.14155626001E+03  0.00000000000E+00 0.  1.
         12    1    3    3    0    0 -0.45709174583E+03 -0.56371155689E+02  0.24120546669E+03  0.51989484366E+03  0.00000000000E+00 0. -1.
        -13    1    5    5    0    0 -0.60006511873E+02  0.76491470491E+02  0.30683647687E+03  0.32187008258E+03  0.00000000000E+00 0.  1.
         14    1    5    5    0    0 -0.42295239124E+02 -0.97987101305E+01  0.66505968566E+02  0.79422577569E+02  0.00000000000E+00 0. -1.
          5    1    4    4  502    0  0.25373710996E+03 -0.35788680065E+02 -0.17707369703E+03  0.31151329791E+03  0.47000000000E+01 0. -1.
         -5    1    4    4    0  502  0.18589639231E+03  0.45719731785E+02 -0.44922819868E+02  0.19669243069E+03  0.47000000000E+01 0. -1.
          1    1    1    2  503    0  0.86333891224E+02 -0.92172242174E+02 -0.11621885917E+04  0.11690301902E+04  0.00000000000E+00 0. -1.
         -4    1    1    2    0  501  0.13656404066E+03  0.11635433915E+03  0.95059387252E+03  0.96737623493E+03  0.00000000000E+00 0.  1.
<mgrwt>
<rscale>  0 0.14114576E+03</rscale>
<asrwt>0</asrwt>
<pdfrwt beam="2">  1        2 0.25295760E+00 0.12629039E+03</pdfrwt>
<pdfrwt beam="1">  1       -3 0.29224180E+00 0.15774854E+03</pdfrwt>
<totfact> 0.37653732E-01</totfact>
</mgrwt>
</event>
<event>
13    1  0.2101801E-008  0.7292228E+02  0.7546771E-02  0.1387813E+00
          2   -1    0    0  502    0  0.00000000000E+00  0.00000000000E+00  0.56527611407E+03  0.56527611407E+03  0.00000000000E+00 0. -1.
          2   -1    0    0  503    0 -0.00000000000E+00 -0.00000000000E+00 -0.13397704543E+04  0.13397704543E+04  0.00000000000E+00 0. -1.
         24    2    1    2    0    0 -0.83986212616E+02 -0.77914760909E+00 -0.27079710889E+03  0.29435841454E+03  0.79129710277E+02 0.  0.
         25    2    1    2    0    0 -0.53932640930E+02 -0.34084399425E+02  0.19641017651E+03  0.24139723595E+03  0.12500076818E+03 0.  0.
         24    2    1    2    0    0  0.12504586627E+02  0.48021100493E+02 -0.10150489349E+03  0.13885387695E+03  0.80714093952E+02 0.  0.
        -11    1    5    5    0    0 -0.25261860644E+02 -0.65631248817E+01 -0.43374077223E+02  0.50621603949E+02  0.00000000000E+00 0.  1.
         12    1    5    5    0    0  0.37766447271E+02  0.54584225375E+02 -0.58130816271E+02  0.88232273004E+02  0.00000000000E+00 0. -1.
        -13    1    3    3    0    0  0.30883536395E+01 -0.42514971465E+01 -0.12057906563E+03  0.12069351359E+03  0.00000000000E+00 0.  1.
         14    1    3    3    0    0 -0.87074566256E+02  0.34723495374E+01 -0.15021804326E+03  0.17366490095E+03  0.00000000000E+00 0. -1.
          5    1    4    4  501    0  0.10919756443E+02 -0.59442779804E+02  0.47744089195E+02  0.77163937203E+02  0.47000000000E+01 0.  1.
         -5    1    4    4    0  501 -0.64852397373E+02  0.25358380379E+02  0.14866608731E+03  0.16423329875E+03  0.47000000000E+01 0.  1.
          1    1    1    2  502    0  0.53203760848E+02 -0.55122287880E+01  0.31219778976E+03  0.31674672021E+03  0.00000000000E+00 0. -1.
          1    1    1    2  503    0  0.72210506071E+02 -0.76453246712E+01 -0.91080030414E+03  0.91369032073E+03  0.00000000000E+00 0. -1.
<mgrwt>
<rscale>  0 0.62454038E+02</rscale>
<asrwt>0</asrwt>
<pdfrwt beam="1">  1        2 0.83128842E-01 0.53488549E+02</pdfrwt>
<pdfrwt beam="2">  1        2 0.19702506E+00 0.72922278E+02</pdfrwt>
<totfact> 0.17967836E+02</totfact>
</mgrwt>
</event>
<event>
13    1  0.2101801E-008  0.1420829E+03  0.7546771E-02  0.1292403E+00
          2   -1    0    0  503    0  0.00000000000E+00  0.00000000000E+00  0.24476411078E+04  0.24476411078E+04  0.00000000000E+00 0. -1.
          2   -1    0    0  502    0 -0.00000000000E+00 -0.00000000000E+00 -0.27591343224E+04  0.27591343224E+04  0.00000000000E+00 0. -1.
         24    2    1    2    0    0 -0.16925968325E+03 -0.19519434140E+03 -0.88911718273E+03  0.92933855034E+03  0.79944388358E+02 0.  0.
         25    2    1    2    0    0 -0.28385969568E+03  0.56617082365E+03 -0.11695933678E+03  0.65607143422E+03  0.12499804781E+03 0.  0.
         24    2    1    2    0    0  0.38691194279E+03 -0.28461506691E+03 -0.10766435408E+04  0.11815679983E+04  0.78962225077E+02 0.  0.
        -11    1    3    3    0    0 -0.86842481746E+02 -0.82237031944E+02 -0.54356357029E+03  0.55656616948E+03  0.00000000000E+00 0.  1.
         12    1    3    3    0    0 -0.82417201506E+02 -0.11295730945E+03 -0.34555361244E+03  0.37277238086E+03  0.00000000000E+00 0. -1.
        -11    1    5    5    0    0  0.23222498865E+03 -0.12600632751E+03 -0.62324078983E+03  0.67693066265E+03  0.00000000000E+00 0.  1.
         12    1    5    5    0    0  0.15468695414E+03 -0.15860873940E+03 -0.45340275094E+03  0.50463733567E+03  0.00000000000E+00 0. -1.
          5    1    4    4  501    0 -0.16084362693E+03  0.28406138542E+03  0.91559422091E+00  0.32647277271E+03  0.47000000000E+01 0. -1.
         -5    1    4    4    0  501 -0.12301606875E+03  0.28210943823E+03 -0.11787493100E+03  0.32959866150E+03  0.47000000000E+01 0. -1.
          1    1    1    2  502    0  0.33604135416E+02 -0.14002999601E+03 -0.31828276012E+03  0.34934446194E+03  0.00000000000E+00 0. -1.
          1    1    1    2  503    0  0.32603300722E+02  0.53668580673E+02  0.20895096058E+04  0.20904529855E+04  0.00000000000E+00 0. -1.
<mgrwt>
<rscale>  0 0.94457322E+02</rscale>
<asrwt>0</asrwt>
<pdfrwt beam="1">  1        2 0.35994723E+00 0.62795635E+02</pdfrwt>
<pdfrwt beam="2">  1        2 0.40575504E+00 0.14208290E+03</pdfrwt>
<totfact> 0.33815407E+00</totfact>
</mgrwt>
</event>
<event>
13    1  0.2101801E-008  0.1845835E+03  0.7546771E-02  0.1340021E+00
          2   -1    0    0  502    0  0.00000000000E+00  0.00000000000E+00  0.15389382968E+04  0.15389382968E+04  0.00000000000E+00 0. -1.
          2   -1    0    0  503    0 -0.00000000000E+00 -0.00000000000E+00 -0.16677334837E+04  0.16677334837E+04  0.00000000000E+00 0. -1.
         24    2    1    2    0    0 -0.57944449567E+02 -0.42357909772E+02 -0.37110290035E+03  0.38646242189E+03  0.80523841993E+02 0.  0.
         25    2    1    2    0    0 -0.81339703754E+02  0.26663301441E+03  0.14194686906E+03  0.33687146626E+03  0.12499663740E+03 0.  0.
         24    2    1    2    0    0  0.10195661298E+03 -0.57462797544E+02  0.32684898812E+03  0.35593280524E+03  0.78490615880E+02 0.  0.
        -13    1    3    3    0    0  0.52051730038E+01 -0.42367312991E+01  0.12899219034E+01  0.68342970829E+01  0.00000000000E+00 0.  1.
         14    1    3    3    0    0 -0.63149622571E+02 -0.38121178473E+02 -0.37239282225E+03  0.37962812481E+03  0.00000000000E+00 0. -1.
        -13    1    5    5    0    0  0.63351197645E+02 -0.72670692816E+02  0.19200904807E+03  0.21485315538E+03  0.00000000000E+00 0.  1.
         14    1    5    5    0    0  0.38605415339E+02  0.15207895272E+02  0.13483994005E+03  0.14107964986E+03  0.00000000000E+00 0. -1.
          5    1    4    4  501    0 -0.22200911661E+01  0.12269759209E+03  0.11892270108E+03  0.17095124083E+03  0.47000000000E+01 0.  1.
         -5    1    4    4    0  501 -0.79119612587E+02  0.14393542232E+03  0.23024167982E+02  0.16592022543E+03  0.47000000000E+01 0.  1.
          1    1    1    2  502    0  0.67292070274E+02 -0.15708304315E+03  0.94256316995E+03  0.95792934735E+03  0.00000000000E+00 0. -1.
          1    1    1    2  503    0 -0.29964529937E+02 -0.97292639493E+01 -0.11690513138E+04  0.11694757397E+04  0.00000000000E+00 0. -1.
<mgrwt>
<rscale>  0 0.76257489E+02</rscale>
<asrwt>0</asrwt>
<pdfrwt beam="1">  1        2 0.22631446E+00 0.18458348E+03</pdfrwt>
<pdfrwt beam="2">  1        2 0.24525492E+00 0.31504470E+02</pdfrwt>
<totfact> 0.33552602E+01</totfact>
</mgrwt>
</event>
<event>
13    1  0.2101801E-008  0.3813277E+03  0.7546771E-02  0.1136587E+00
          2   -1    0    0  503    0  0.00000000000E+00  0.00000000000E+00  0.20736159877E+04  0.20736159877E+04  0.00000000000E+00 0. -1.
         -1   -1    0    0    0  501 -0.00000000000E+00 -0.00000000000E+00 -0.76574168980E+03  0.76574168980E+03  0.00000000000E+00 0.  1.
         24    2    1    2    0    0  0.11596491129E+03  0.84404664989E+02  0.47010636476E+02  0.17102297613E+03  0.80416728976E+02 0.  0.
         25    2    1    2    0    0  0.12385705043E+03  0.36452536687E+03  0.28953687984E+03  0.49767130375E+03  0.12500323895E+03 0.  0.
         24    2    1    2    0    0  0.40215446982E+02  0.50425392306E+02  0.19738055278E+03  0.21886522014E+03  0.69158510729E+02 0.  0.
        -11    1    5    5    0    0 -0.10691893236E+02 -0.75865820473E+01  0.58776775506E+02  0.60221110476E+02  0.00000000000E+00 0.  1.
         12    1    5    5    0    0  0.50907340219E+02  0.58011974353E+02  0.13860377727E+03  0.15864410966E+03  0.00000000000E+00 0. -1.
        -11    1    3    3    0    0  0.84433128375E+02  0.83528999540E+02  0.64293765645E+02  0.13505456391E+03  0.00000000000E+00 0.  1.
         12    1    3    3    0    0  0.31531782912E+02  0.87566544855E+00 -0.17283129169E+02  0.35968412218E+02  0.00000000000E+00 0. -1.
          5    1    4    4  502    0 -0.68054959683E+01  0.63043863841E+02  0.99456466729E+02  0.11804457767E+03  0.47000000000E+01 0. -1.
         -5    1    4    4    0  502  0.13066254640E+03  0.30148150303E+03  0.19008041312E+03  0.37962672608E+03  0.47000000000E+01 0. -1.
          1    1    1    2  503    0 -0.14539978121E+03 -0.14317601376E+03  0.12924702938E+04  0.13084800066E+04  0.00000000000E+00 0. -1.
         -2    1    1    2    0  501 -0.13463762749E+03 -0.35617941041E+03 -0.51852406495E+03  0.64331817094E+03  0.00000000000E+00 0.  1.
<mgrwt>
<rscale>  0 0.21641193E+03</rscale>
<asrwt>0</asrwt>
<pdfrwt beam="1">  1        2 0.30494353E+00 0.12281855E+03</pdfrwt>
<pdfrwt beam="2">  1       -1 0.11260907E+00 0.38132774E+03</pdfrwt>
<totfact> 0.72163143E+00</totfact>
</mgrwt>
</event>
<event>
13    1  0.2101801E-008  0.3282332E+02  0.7546771E-02  0.1644835E+00
          2   -1    0    0  502    0  0.00000000000E+00  0.00000000000E+00  0.28870886634E+04  0.28870886634E+04  0.00000000000E+00 0. -1.
          2   -1    0    0  503    0 -0.00000000000E+00 -0.00000000000E+00 -0.30835200636E+04  0.30835200636E+04  0.00000000000E+00 0. -1.
         24    2    1    2    0    0  0.18028573408E+03  0.12858398935E+03 -0.10435532343E+04  0.10696271545E+04  0.77859543484E+02 0.  0.
         25    2    1    2    0    0  0.76669318395E+03  0.56082262107E+03 -0.37158694050E+03  0.10276397137E+04  0.12500430442E+03 0.  0.
         24    2    1    2    0    0 -0.98600267599E+03 -0.72305023744E+03  0.20336329568E+04  0.23738960191E+04  0.68675930667E+02 0.  0.
        -11    1    3    3    0    0  0.11403992551E+03  0.53906247742E+02 -0.72196375830E+03  0.73290016814E+03  0.00000000000E+00 0.  1.
         12    1    3    3    0    0  0.66245808574E+02  0.74677741609E+02 -0.32158947600E+03  0.33672698633E+03  0.00000000000E+00 0. -1.
        -11    1    5    5    0    0 -0.34220263013E+03 -0.23878874858E+03  0.63465570424E+03  0.75954629184E+03  0.00000000000E+00 0.  1.
         12    1    5    5    0    0 -0.64380004586E+03 -0.48426148886E+03  0.13989772526E+04  0.16143497273E+04  0.00000000000E+00 0. -1.
          5    1    4    4  501    0  0.76343725470E+03  0.55411891279E+03 -0.37849147298E+03  0.10164458158E+04  0.47000000000E+01 0.  1.
         -5    1    4    4    0  501  0.32559292444E+01  0.67037082795E+01  0.69045324848E+01  0.11193897837E+02  0.47000000000E+01 0.  1.
          1    1    1    2  502    0  0.19568707503E+02  0.72094329246E+01  0.34171013994E+03  0.34234592151E+03  0.00000000000E+00 0. -1.
          1    1    1    2  503    0  0.19455050457E+02  0.26434194094E+02 -0.11566343222E+04  0.11570999183E+04  0.00000000000E+00 0. -1.
<mgrwt>
<rscale>  0 0.26163217E+02</rscale>
<asrwt>0</asrwt>
<pdfrwt beam="1">  1        2 0.42457186E+00 0.20854502E+02</pdfrwt>
<pdfrwt beam="2">  1        2 0.45345883E+00 0.32823317E+02</pdfrwt>
<totfact> 0.21194151E+00</totfact>
</mgrwt>
</event>
<event>
13    1  0.2101801E-008  0.8542688E+02  0.7546771E-02  0.1317940E+00
          2   -1    0    0  502    0  0.00000000000E+00  0.00000000000E+00  0.17888750602E+04  0.17888750602E+04  0.00000000000E+00 0. -1.
          2   -1    0    0  503    0 -0.00000000000E+00 -0.00000000000E+00 -0.10252836728E+04  0.10252836728E+04  0.00000000000E+00 0. -1.
         24    2    1    2    0    0  0.43166704873E+02  0.30432066525E+01  0.81837794654E+02  0.12079184660E+03  0.77592654652E+02 0.  0.
         25    2    1    2    0    0  0.90996430071E+02 -0.31889440432E+02 -0.10670689984E+03  0.19055187125E+03  0.12500546576E+03 0.  0.
         24    2    1    2    0    0 -0.14297099198E+03 -0.12163645018E+03  0.47485982133E+03  0.51701646372E+03  0.81105137216E+02 0.  0.
        -13    1    3    3    0    0  0.53869002641E+02 -0.22366513101E+02  0.69081536416E+02  0.90412327851E+02  0.00000000000E+00 0.  1.
         14    1    3    3    0    0 -0.10702297768E+02  0.25409719754E+02  0.12756258238E+02  0.30379518754E+02  0.00000000000E+00 0. -1.
        -13    1    5    5    0    0 -0.15126637146E+03 -0.10279874828E+03  0.40933964084E+03  0.44833920121E+03  0.00000000000E+00 0.  1.
         14    1    5    5    0    0  0.82953794809E+01 -0.18837701909E+02  0.65520180492E+02  0.68677262509E+02  0.00000000000E+00 0. -1.
          5    1    4    4  501    0  0.11444761068E+03  0.41455015219E+01 -0.78011132982E+02  0.13864799906E+03  0.47000000000E+01 0.  1.
         -5    1    4    4    0  501 -0.23451180611E+02 -0.36034941954E+02 -0.28695766854E+02  0.51903872196E+02  0.47000000000E+01 0.  1.
          1    1    1    2  502    0  0.41277428728E+02  0.71652796372E+02  0.11460326973E+04  0.11490121377E+04  0.00000000000E+00 0. -1.
          1    1    1    2  503    0 -0.32469571696E+02  0.78829887591E+02 -0.83243202598E+03  0.83678641370E+03  0.00000000000E+00 0. -1.
<mgrwt>
<rscale>  0 0.84048265E+02</rscale>
<asrwt>0</asrwt>
<pdfrwt beam="1">  1        2 0.26306986E+00 0.82691894E+02</pdfrwt>
<pdfrwt beam="2">  1        2 0.15077701E+00 0.85426884E+02</pdfrwt>
<totfact> 0.52554669E+01</totfact>
</mgrwt>
</event>
<event>
13    1  0.2101801E-008  0.1534650E+03  0.7546771E-02  0.1365439E+00
          2   -1    0    0  502    0  0.00000000000E+00  0.00000000000E+00  0.87852535842E+03  0.87852535842E+03  0.00000000000E+00 0. -1.
          2   -1    0    0  503    0 -0.00000000000E+00 -0.00000000000E+00 -0.24889658340E+04  0.24889658340E+04  0.00000000000E+00 0. -1.
         24    2    1    2    0    0  0.71169166091E+02 -0.12183522082E+02 -0.41493672595E+03  0.42862219814E+03  0.79567667955E+02 0.  0.
         25    2    1    2    0    0 -0.11004069382E+03 -0.11632002471E+03  0.74963928172E+02  0.21652787738E+03  0.12500171484E+03 0.  0.
         24    2    1    2    0    0 -0.71154713362E+02  0.35033412830E+02  0.41385818759E+02  0.12134019212E+03  0.81977576085E+02 0.  0.
        -11    1    5    5    0    0 -0.85076907731E+02  0.42749224590E+02  0.44535614359E+02  0.10511421112E+03  0.00000000000E+00 0.  1.
         12    1    5    5    0    0  0.13922194369E+02 -0.77158117604E+01 -0.31497956002E+01  0.16225981003E+02  0.00000000000E+00 0. -1.
        -13    1    3    3    0    0  0.52385031451E+02 -0.44246898158E+02 -0.30361182205E+03  0.31125892438E+03  0.00000000000E+00 0.  1.
         14    1    3    3    0    0  0.18784134640E+02  0.32063376076E+02 -0.11132490389E+03  0.11736327375E+03  0.00000000000E+00 0. -1.
          5    1    4    4  501    0 -0.97075505236E+02 -0.43357084748E+02 -0.60988242392E+01  0.10659632344E+03  0.47000000000E+01 0.  1.
         -5    1    4    4    0  501 -0.12965188585E+02 -0.72962939959E+02  0.81062752411E+02  0.10993155394E+03  0.47000000000E+01 0.  1.
          1    1    1    2  502    0  0.13406741910E+03  0.74648856528E+02  0.63531974098E+03  0.65358832451E+03  0.00000000000E+00 0. -1.
          1    1    1    2  503    0 -0.24041178009E+02  0.18821277431E+02 -0.19471732376E+04  0.19474126003E+04  0.00000000000E+00 0. -1.
<mgrwt>
<rscale>  0 0.68451673E+02</rscale>
<asrwt>0</asrwt>
<pdfrwt beam="1">  1        2 0.12919491E+00 0.15346496E+03</pdfrwt>
<pdfrwt beam="2">  1        2 0.36602438E+00 0.30532257E+02</pdfrwt>
<totfact> 0.33168621E+01</totfact>
</mgrwt>
</event>
<event>
13    1  0.2101801E-008  0.1152366E+03  0.7546771E-02  0.1276980E+00
          2   -1    0    0  502    0  0.00000000000E+00  0.00000000000E+00  0.27146030239E+04  0.27146030239E+04  0.00000000000E+00 0. -1.
          2   -1    0    0  503    0 -0.00000000000E+00 -0.00000000000E+00 -0.16335327035E+04  0.16335327035E+04  0.00000000000E+00 0. -1.
         24    2    1    2    0    0  0.10556807284E+03  0.98889791394E+02 -0.59661693866E+03  0.61924150114E+03  0.81144663376E+02 0.  0.
         25    2    1    2    0    0 -0.21347455195E+03 -0.16162549685E+03  0.65949157769E+03  0.72266899412E+03  0.12500859350E+03 0.  0.
         24    2    1    2    0    0 -0.19017291757E+02 -0.49026440667E+02 -0.19175392379E+03  0.21416399284E+03  0.79570090289E+02 0.  0.
        -11    1    3    3    0    0 -0.66623559579E+01 -0.72414427884E+01 -0.19939348799E+02  0.22235177334E+02  0.00000000000E+00 0.  1.
         12    1    3    3    0    0  0.11223042880E+03  0.10613123418E+03 -0.57667758986E+03  0.59700632381E+03  0.00000000000E+00 0. -1.
        -13    1    5    5    0    0  0.88803330260E+01 -0.41279764788E+02 -0.35248793219E+02  0.55003242804E+02  0.00000000000E+00 0.  1.
         14    1    5    5    0    0 -0.27897624783E+02 -0.77466758794E+01 -0.15650513057E+03  0.15916075004E+03  0.00000000000E+00 0. -1.
          5    1    4    4  501    0 -0.21199576368E+03 -0.12070968839E+03  0.47939029522E+03  0.53791279761E+03  0.47000000000E+01 0.  1.
         -5    1    4    4    0  501 -0.14787882695E+01 -0.40915808466E+02  0.18010128247E+03  0.18475619650E+03  0.47000000000E+01 0.  1.
          1    1    1    2  502    0  0.75289578670E+02 -0.48513758790E+02  0.19910262766E+04  0.19930398239E+04  0.00000000000E+00 0. -1.
          1    1    1    2  503    0  0.51634192193E+02  0.16027590492E+03 -0.78107667153E+03  0.79902141543E+03  0.00000000000E+00 0. -1.
<mgrwt>
<rscale>  0 0.10159380E+03</rscale>
<asrwt>0</asrwt>
<pdfrwt beam="1">  1        2 0.39920633E+00 0.89566207E+02</pdfrwt>
<pdfrwt beam="2">  1        2 0.24022540E+00 0.11523655E+03</pdfrwt>
<totfact> 0.87725685E+00</totfact>
</mgrwt>
</event>
<event>
13    1  0.2101801E-008  0.8021088E+02  0.7546771E-02  0.1390167E+00
         -1   -1    0    0    0  501 -0.00000000000E+00  0.00000000000E+00  0.21313934350E+03  0.21313934350E+03  0.00000000000E+00 0.  1.
          2   -1    0    0  503    0  0.00000000000E+00 -0.00000000000E+00 -0.16696355335E+04  0.16696355335E+04  0.00000000000E+00 0. -1.
         24    2    1    2    0    0  0.17912155940E+02  0.14884930909E+01  0.98633220918E+02  0.12845656570E+03  0.80308879096E+02 0.  0.
         25    2    1    2    0    0  0.62135668462E+02  0.50481472295E+02 -0.46592590300E+03  0.48900045460E+03  0.12500110870E+03 0.  0.
         24    2    1    2    0    0  0.32729157788E+01  0.78565663545E+01 -0.15438708236E+02  0.81621426271E+02  0.79694829832E+02 0.  0.
        -13    1    3    3    0    0  0.45288127538E+02  0.17317265744E+02  0.73549822072E+02  0.88093578175E+02  0.00000000000E+00 0.  1.
         14    1    3    3    0    0 -0.27375971598E+02 -0.15828772653E+02  0.25083398845E+02  0.40362987529E+02  0.00000000000E+00 0. -1.
        -13    1    5    5    0    0  0.27406436307E+02 -0.26374245090E+02 -0.42676010252E+01  0.38274351381E+02  0.00000000000E+00 0.  1.
         14    1    5    5    0    0 -0.24133520528E+02  0.34230811445E+02 -0.11171107211E+02  0.43347074890E+02  0.00000000000E+00 0. -1.
          5    1    4    4  502    0  0.22030359017E+02 -0.12256867265E+02 -0.10844454644E+02  0.27843485954E+02  0.47000000000E+01 0. -1.
         -5    1    4    4    0  502  0.40105309445E+02  0.62738339560E+02 -0.45508144836E+03  0.46115696865E+03  0.47000000000E+01 0. -1.
          1    1    1    2  503    0 -0.79182649022E+02 -0.12290918893E+02 -0.11166618569E+04  0.11195332337E+04  0.00000000000E+00 0. -1.
         -2    1    1    2    0  501 -0.41380911584E+01 -0.47535612848E+02  0.42897057292E+02  0.64163196706E+02  0.00000000000E+00 0.  1.
<mgrwt>
<rscale>  0 0.61865120E+02</rscale>
<asrwt>0</asrwt>
<pdfrwt beam="2">  1        2 0.24553464E+00 0.80210876E+02</pdfrwt>
<pdfrwt beam="1">  1       -1 0.31344021E-01 0.47715388E+02</pdfrwt>
<totfact> 0.14256969E+02</totfact>
</mgrwt>
</event>
<event>
13    1  0.2101801E-008  0.1292257E+03  0.7546771E-02  0.1249119E+00
          2   -1    0    0  502    0  0.00000000000E+00  0.00000000000E+00  0.52627157737E+04  0.52627157737E+04  0.00000000000E+00 0. -1.
          2   -1    0    0  503    0 -0.00000000000E+00 -0.00000000000E+00 -0.26751338450E+03  0.26751338450E+03  0.00000000000E+00 0. -1.
         24    2    1    2    0    0 -0.43849874240E+02  0.37680123458E+02  0.10893711520E+03  0.14729928379E+03  0.80543036707E+02 0.  0.
         25    2    1    2    0    0  0.17562502235E+03 -0.21237088349E+03  0.23685971682E+04  0.23878505598E+04  0.12502883709E+03 0.  0.
         24    2    1    2    0    0 -0.30782221526E+02 -0.34266916306E+02  0.11658359368E+04  0.11695263031E+04  0.80601336031E+02 0.  0.
        -13    1    3    3    0    0  0.18129092124E+02 -0.87847722799E+01  0.12924961836E+02  0.23935138264E+02  0.00000000000E+00 0.  1.
         14    1    3    3    0    0 -0.61978966364E+02  0.46464895738E+02  0.96012153367E+02  0.12336414553E+03  0.00000000000E+00 0. -1.
        -13    1    5    5    0    0  0.16620991428E+02 -0.71070472894E+01  0.68935900271E+02  0.71266582796E+02  0.00000000000E+00 0.  1.
         14    1    5    5    0    0 -0.47403212954E+02 -0.27159869017E+02  0.10969000365E+04  0.10982597203E+04  0.00000000000E+00 0. -1.
          5    1    4    4  501    0  0.14363826761E+03 -0.14892306281E+03  0.12524562355E+04  0.12694403265E+04  0.47000000000E+01 0.  1.
         -5    1    4    4    0  501  0.31986754734E+02 -0.63447820681E+02  0.11161409327E+04  0.11184102334E+04  0.47000000000E+01 0.  1.
          1    1    1    2  502    0 -0.41822713710E+02  0.11813089065E+03  0.15736674310E+04  0.15786491789E+04  0.00000000000E+00 0. -1.
          1    1    1    2  503    0 -0.59170212869E+02  0.90826785692E+02 -0.22183526200E+03  0.24690383261E+03  0.00000000000E+00 0. -1.
<mgrwt>
<rscale>  0 0.11642220E+03</rscale>
<asrwt>0</asrwt>
<pdfrwt beam="1">  1        2 0.77392872E+00 0.10488726E+03</pdfrwt>
<pdfrwt beam="2">  1        2 0.39340207E-01 0.12922569E+03</pdfrwt>
<totfact> 0.12107868E+00</totfact>
</mgrwt>
</event>
<event>
13    1  0.2101801E-008  0.6554511E+02  0.7546771E-02  0.1494697E+00
          2   -1    0    0  502    0  0.00000000000E+00  0.00000000000E+00  0.18277239799E+04  0.18277239799E+04  0.00000000000E+00 0. -1.
          2   -1    0    0  503    0 -0.00000000000E+00 -0.00000000000E+00 -0.23379051535E+04  0.23379051535E+04  0.00000000000E+00 0. -1.
         24    2    1    2    0    0 -0.27164775011E+02  0.42087041625E+02 -0.60774150094E+03  0.61507831291E+03  0.80388773932E+02 0.  0.
         25    2    1    2    0    0  0.28766763008E+03 -0.81613725362E+02 -0.98790473300E+02  0.33881477812E+03  0.12498972235E+03 0.  0.
         24    2    1    2    0    0 -0.28561149483E+03  0.12456062951E+03  0.98015889037E+03  0.10316678212E+04  0.80856456082E+02 0.  0.
        -11    1    3    3    0    0 -0.40606883674E+02  0.17707894296E+02 -0.54035092916E+03  0.54216382687E+03  0.00000000000E+00 0.  1.
         12    1    3    3    0    0  0.13442108663E+02  0.24379147329E+02 -0.67390571781E+02  0.72914486042E+02  0.00000000000E+00 0. -1.
        -13    1    5    5    0    0 -0.76644927506E+01  0.18014918296E+02  0.11692488616E+03  0.11855256528E+03  0.00000000000E+00 0.  1.
         14    1    5    5    0    0 -0.27794700208E+03  0.10654571121E+03  0.86323400421E+03  0.91311525591E+03  0.00000000000E+00 0. -1.
          5    1    4    4  501    0  0.16860557525E+03 -0.11002717522E+03 -0.67350086933E+02  0.21234863669E+03  0.47000000000E+01 0.  1.
         -5    1    4    4    0  501  0.11906205483E+03  0.28413449860E+02 -0.31440386367E+02  0.12646614143E+03  0.47000000000E+01 0.  1.
          1    1    1    2  502    0  0.29307771954E+02 -0.58584133098E+02  0.69647205769E+03  0.69954583358E+03  0.00000000000E+00 0. -1.
          1    1    1    2  503    0 -0.41991321939E+01 -0.26449812675E+02 -0.14802801475E+04  0.14805223876E+04  0.00000000000E+00 0. -1.
<mgrwt>
<rscale>  0 0.41897109E+02</rscale>
<asrwt>0</asrwt>
<pdfrwt beam="1">  1        2 0.26878294E+00 0.65545112E+02</pdfrwt>
<pdfrwt beam="2">  1        2 0.34380958E+00 0.26781062E+02</pdfrwt>
<totfact> 0.13457936E+01</totfact>
</mgrwt>
</event>
<event>
13    1  0.2101801E-008  0.2356923E+03  0.7546771E-02  0.1164962E+00
          2   -1    0    0  502    0  0.00000000000E+00  0.00000000000E+00  0.28830132002E+04  0.28830132002E+04  0.00000000000E+00 0. -1.
          2   -1    0    0  503    0 -0.00000000000E+00 -0.00000000000E+00 -0.39671080674E+04  0.39671080674E+04  0.00000000000E+00 0. -1.
         24    2    1    2    0    0 -0.10826131877E+03 -0.19944413022E+03 -0.84439367396E+03  0.87812973214E+03  0.81318359704E+02 0.  0.
         25    2    1    2    0    0  0.59739377043E+03  0.14742445303E+03  0.49777452973E+01  0.62790363761E+03  0.12499965552E+03 0.  0.
         24    2    1    2    0    0 -0.13304401931E+03  0.42528748158E+02 -0.36835188713E+02  0.16540263114E+03  0.80571668500E+02 0.  0.
        -11    1    5    5    0    0 -0.99869840062E+02  0.54311779274E+02 -0.54435497912E+02  0.12604355499E+03  0.00000000000E+00 0.  1.
         12    1    5    5    0    0 -0.33174179249E+02 -0.11783031115E+02  0.17600309199E+02  0.39359076145E+02  0.00000000000E+00 0. -1.
        -13    1    3    3    0    0  0.69644557492E+01  0.28866983571E+01 -0.40467505386E+02  0.41163766391E+02  0.00000000000E+00 0.  1.
         14    1    3    3    0    0 -0.11522577452E+03 -0.20233082857E+03 -0.80392616858E+03  0.83696596575E+03  0.00000000000E+00 0. -1.
          5    1    4    4  501    0  0.88563940903E+02  0.53556363640E+02  0.35628068492E+02  0.10955959556E+03  0.47000000000E+01 0. -1.
         -5    1    4    4    0  501  0.50882982953E+03  0.93868089391E+02 -0.30650323194E+02  0.51834404206E+03  0.47000000000E+01 0. -1.
          1    1    1    2  502    0 -0.13233380128E+03 -0.51594177530E+02  0.24783899338E+04  0.24824566176E+04  0.00000000000E+00 0. -1.
          1    1    1    2  503    0 -0.22375463106E+03  0.61085106558E+02 -0.26862336836E+04  0.26962286491E+04  0.00000000000E+00 0. -1.
<mgrwt>
<rscale>  0 0.18296658E+03</rscale>
<asrwt>0</asrwt>
<pdfrwt beam="1">  1        2 0.42397253E+00 0.14203589E+03</pdfrwt>
<pdfrwt beam="2">  1        2 0.58339824E+00 0.23569231E+03</pdfrwt>
<totfact> 0.32486398E-01</totfact>
</mgrwt>
</event>
<event>
13    1  0.2101801E-008  0.1069488E+03  0.7546771E-02  0.1406916E+00
          2   -1    0    0  502    0  0.00000000000E+00  0.00000000000E+00  0.19652330622E+04  0.19652330622E+04  0.00000000000E+00 0. -1.
          2   -1    0    0  503    0 -0.00000000000E+00 -0.00000000000E+00 -0.13343245096E+04  0.13343245096E+04  0.00000000000E+00 0. -1.
         24    2    1    2    0    0 -0.31873410435E+03  0.23365203642E+03  0.55951349138E+02  0.40725212238E+03  0.80864295651E+02 0.  0.
         25    2    1    2    0    0  0.19244967655E+03 -0.10393179367E+03  0.11476626804E+03  0.27683156611E+03  0.12500289587E+03 0.  0.
         24    2    1    2    0    0  0.50828547023E+02 -0.17234692259E+03  0.52778290665E+03  0.56325423741E+03  0.80084558322E+02 0.  0.
        -13    1    5    5    0    0 -0.33207512323E-01  0.62276987274E+00  0.87295656608E+02  0.87297884325E+02  0.00000000000E+00 0.  1.
         14    1    5    5    0    0  0.50861754535E+02 -0.17296969247E+03  0.44048725004E+03  0.47595635308E+03  0.00000000000E+00 0. -1.
        -13    1    3    3    0    0  0.48335735284E+01  0.60246057265E+01  0.19807955897E+01  0.79738860277E+01  0.00000000000E+00 0.  1.
         14    1    3    3    0    0 -0.32356767788E+03  0.22762743069E+03  0.53970553549E+02  0.39927823635E+03  0.00000000000E+00 0. -1.
          5    1    4    4  501    0  0.52828265959E+02 -0.57880698737E+02  0.10266334435E+03  0.12923951889E+03  0.47000000000E+01 0. -1.
         -5    1    4    4    0  501  0.13962141059E+03 -0.46051094930E+02  0.12102923689E+02  0.14759204722E+03  0.47000000000E+01 0. -1.
          1    1    1    2  502    0 -0.19432378787E+01 -0.31272257976E+02  0.98936408917E+03  0.98986010690E+03  0.00000000000E+00 0. -1.
          1    1    1    2  503    0  0.77399118656E+02  0.73898937819E+02 -0.10569560604E+04  0.10623595391E+04  0.00000000000E+00 0. -1.
<mgrwt>
<rscale>  0 0.57887669E+02</rscale>
<asrwt>0</asrwt>
<pdfrwt beam="1">  1        2 0.28900486E+00 0.31332576E+02</pdfrwt>
<pdfrwt beam="2">  1        2 0.19622419E+00 0.10694883E+03</pdfrwt>
<totfact> 0.32519374E+01</totfact>
</mgrwt>
</event>
<event>
13    1  0.2101801E-008  0.1323359E+03  0.7546771E-02  0.1405344E+00
          2   -1    0    0  503    0  0.00000000000E+00  0.00000000000E+00  0.68502908674E+03  0.68502908674E+03  0.00000000000E+00 0. -1.
          2   -1    0    0  502    0 -0.00000000000E+00 -0.00000000000E+00 -0.25648814654E+04  0.25648814654E+04  0.00000000000E+00 0. -1.
         24    2    1    2    0    0  0.60565702088E+00  0.30837267644E+02 -0.99108046215E+03  0.99470867549E+03  0.79079471049E+02 0.  0.
         25    2    1    2    0    0  0.11643831232E+03  0.12236818376E+03 -0.49694023866E+03  0.53953614916E+03  0.12497120657E+03 0.  0.
         24    2    1    2    0    0  0.35151648954E+02 -0.37711761018E+02  0.45741581343E+02  0.10645247054E+03  0.81129654740E+02 0.  0.
        -11    1    3    3    0    0 -0.17589783012E+02 -0.22184845926E+02 -0.38610022535E+03  0.38713686452E+03  0.00000000000E+00 0.  1.
         12    1    3    3    0    0  0.18195440033E+02  0.53022113569E+02 -0.60498023680E+03  0.60757181097E+03  0.00000000000E+00 0. -1.
        -11    1    5    5    0    0  0.48206921933E+02  0.10585061066E+00  0.35948878508E+01  0.48340891026E+02  0.00000000000E+00 0.  1.
         12    1    5    5    0    0 -0.13055272979E+02 -0.37817611629E+02  0.42146693492E+02  0.58111579518E+02  0.00000000000E+00 0. -1.
          5    1    4    4  501    0 -0.87303339426E+01  0.47206541311E+02 -0.23231165471E+03  0.23726666683E+03  0.47000000000E+01 0. -1.
         -5    1    4    4    0  501  0.12516864626E+03  0.75161642445E+02 -0.26462858395E+03  0.30226948233E+03  0.47000000000E+01 0. -1.
          1    1    1    2  502    0 -0.24008350944E+02  0.89892131992E+01 -0.10096014272E+04  0.10099268532E+04  0.00000000000E+00 0. -1.
          1    1    1    2  503    0 -0.12818726735E+03 -0.12448290358E+03  0.57202816801E+03  0.59928640381E+03  0.00000000000E+00 0. -1.
<mgrwt>
<rscale>  0 0.58245762E+02</rscale>
<asrwt>0</asrwt>
<pdfrwt beam="1">  1        2 0.10073957E+00 0.13233588E+03</pdfrwt>
<pdfrwt beam="2">  1        2 0.37718845E+00 0.25636046E+02</pdfrwt>
<totfact> 0.42695995E+01</totfact>
</mgrwt>
</event>
<event>
13    1  0.2101801E-008  0.9165311E+02  0.7546771E-02  0.1392944E+00
          2   -1    0    0  503    0  0.00000000000E+00  0.00000000000E+00  0.12361632380E+04  0.12361632380E+04  0.00000000000E+00 0. -1.
         -3   -1    0    0    0  501 -0.00000000000E+00 -0.00000000000E+00 -0.64206621645E+03  0.64206621645E+03  0.00000000000E+00 0.  1.
         24    2    1    2    0    0  0.13251708331E+02 -0.12025581106E+03  0.21834258323E+02  0.14757148722E+03  0.81630515971E+02 0.  0.
         25    2    1    2    0    0 -0.60360007688E+02  0.80040769018E+02 -0.41907979327E+03  0.44866714142E+03  0.12499790170E+03 0.  0.
         24    2    1    2    0    0  0.18127411412E+02  0.85660311483E+02  0.10722253754E+03  0.15970247396E+03  0.79636145211E+02 0.  0.
        -11    1    5    5    0    0  0.15352139553E+02 -0.12446627219E+02  0.13049612773E+02  0.23683308711E+02  0.00000000000E+00 0.  1.
         12    1    5    5    0    0  0.27752718586E+01  0.98106938702E+02  0.94172924767E+02  0.13601916525E+03  0.00000000000E+00 0. -1.
        -13    1    3    3    0    0  0.21657484717E+02 -0.12391788242E+03  0.35866407906E+02  0.13080935534E+03  0.00000000000E+00 0.  1.
         14    1    3    3    0    0 -0.84057763862E+01  0.36620713652E+01 -0.14032149583E+02  0.16762131882E+02  0.00000000000E+00 0. -1.
          5    1    4    4  502    0  0.83556591905E+01 -0.15821430531E+02 -0.19061209396E+03  0.19150768932E+03  0.47000000000E+01 0.  1.
         -5    1    4    4    0  502 -0.68715666879E+02  0.95862199548E+02 -0.22846769930E+03  0.25715945210E+03  0.47000000000E+01 0.  1.
          1    1    1    2  503    0  0.64827992245E+02 -0.65011300425E+02  0.99753164379E+03  0.10017477318E+04  0.00000000000E+00 0. -1.
         -4    1    1    2    0  501 -0.35847104299E+02  0.19566030982E+02 -0.11341162480E+03  0.12054062010E+03  0.00000000000E+00 0.  1.
<mgrwt>
<rscale>  0 0.61180424E+02</rscale>
<asrwt>0</asrwt>
<pdfrwt beam="1">  1        2 0.18178871E+00 0.91653108E+02</pdfrwt>
<pdfrwt beam="2">  1       -3 0.94421503E-01 0.40839251E+02</pdfrwt>
<totfact> 0.13452777E+01</totfact>
</mgrwt>
</event>
<event>
13    1  0.2101801E-008  0.3674112E+03  0.7546771E-02  0.1145049E+00
         -3   -1    0    0    0  501 -0.00000000000E+00  0.00000000000E+00  0.59764548777E+03  0.59764548777E+03  0.00000000000E+00 0.  1.
          2   -1    0    0  503    0  0.00000000000E+00 -0.00000000000E+00 -0.11401331522E+04  0.11401331522E+04  0.00000000000E+00 0. -1.
         24    2    1    2    0    0  0.78510412455E+02 -0.19186261147E+02 -0.24445914334E+03  0.27129472446E+03  0.85490100452E+02 0.  0.
         25    2    1    2    0    0 -0.12072421472E+02  0.75494456962E+02 -0.28627004028E+03  0.32158883496E+03  0.12499474556E+03 0.  0.
         24    2    1    2    0    0 -0.47518828647E+03  0.62483123934E+02 -0.12067530770E+03  0.50091528244E+03  0.81520193288E+02 0.  0.
        -11    1    3    3    0    0  0.34716878806E+02 -0.14829374174E+02 -0.20314056380E+02  0.42869953336E+02  0.00000000000E+00 0.  1.
         12    1    3    3    0    0  0.43793533649E+02 -0.43568869727E+01 -0.22414508696E+03  0.22842477112E+03  0.00000000000E+00 0. -1.
        -13    1    5    5    0    0 -0.36344339141E+03  0.80914926169E+02 -0.82235662135E+02  0.38131486748E+03  0.00000000000E+00 0.  1.
         14    1    5    5    0    0 -0.11174489506E+03 -0.18431802235E+02 -0.38439645567E+02  0.11960041496E+03  0.00000000000E+00 0. -1.
          5    1    4    4  502    0 -0.47862427958E+02  0.86455356200E+02 -0.25160330837E+03  0.27035468445E+03  0.47000000000E+01 0. -1.
         -5    1    4    4    0  502  0.35790006487E+02 -0.10960899238E+02 -0.34666731916E+02  0.51234150507E+02  0.47000000000E+01 0. -1.
          1    1    1    2  503    0  0.71203680789E+02 -0.90458460956E+02 -0.16991828095E+03  0.20524356145E+03  0.00000000000E+00 0. -1.
         -4    1    1    2    0  501  0.33754661470E+03 -0.28332858793E+02  0.27883510785E+03  0.43873623665E+03  0.00000000000E+00 0.  1.
<mgrwt>
<rscale>  0 0.20566114E+03</rscale>
<asrwt>0</asrwt>
<pdfrwt beam="2">  1        2 0.16766664E+00 0.11512036E+03</pdfrwt>
<pdfrwt beam="1">  1       -3 0.87889042E-01 0.36741116E+03</pdfrwt>
<totfact> 0.18256870E+01</totfact>
</mgrwt>
</event>
<event>
13    1  0.2101801E-008  0.7554141E+02  0.7546771E-02  0.1361717E+00
          2   -1    0    0  503    0  0.00000000000E+00  0.00000000000E+00  0.14720167438E+04  0.14720167438E+04  0.00000000000E+00 0. -1.
          2   -1    0    0  502    0 -0.00000000000E+00 -0.00000000000E+00 -0.20845839157E+04  0.20845839157E+04  0.00000000000E+00 0. -1.
         24    2    1    2    0    0 -0.14547404475E+03  0.58883299164E+02 -0.10379455909E+04  0.10528114656E+04  0.80318065892E+02 0.  0.
         25    2    1    2    0    0  0.60418655885E+02  0.46961621196E+02  0.51453559156E+03  0.53500290897E+03  0.12500171909E+03 0.  0.
         24    2    1    2    0    0 -0.23490825100E+02 -0.62867715363E+02 -0.60582400391E+02  0.11981934126E+03  0.78627468509E+02 0.  0.
        -11    1    5    5    0    0  0.21035172989E+00 -0.75088292512E+02 -0.34922382003E+02  0.82812249607E+02  0.00000000000E+00 0.  1.
         12    1    5    5    0    0 -0.23701176830E+02  0.12220577149E+02 -0.25660018388E+02  0.37007091654E+02  0.00000000000E+00 0. -1.
        -13    1    3    3    0    0 -0.71659403546E+01 -0.11018522029E+02 -0.21503075767E+03  0.21543208970E+03  0.00000000000E+00 0.  1.
         14    1    3    3    0    0 -0.13830810439E+03  0.69901821194E+02 -0.82291483325E+03  0.83737937587E+03  0.00000000000E+00 0. -1.
          5    1    4    4  501    0 -0.31738085671E+01  0.52913607824E+00 -0.61464445734E+01  0.83798464607E+01  0.47000000000E+01 0.  1.
         -5    1    4    4    0  501  0.63592464452E+02  0.46432485118E+02  0.52068203613E+03  0.52662306250E+03  0.47000000000E+01 0.  1.
          1    1    1    2  502    0  0.46677650085E+02 -0.59307013983E+02 -0.93612565773E+03  0.93916312321E+03  0.00000000000E+00 0. -1.
          1    1    1    2  503    0  0.61868563876E+02  0.16329808986E+02  0.90755088554E+03  0.90980382045E+03  0.00000000000E+00 0. -1.
<mgrwt>
<rscale>  0 0.69524779E+02</rscale>
<asrwt>0</asrwt>
<pdfrwt beam="1">  1        2 0.21647305E+00 0.63987357E+02</pdfrwt>
<pdfrwt beam="2">  1        2 0.30655646E+00 0.75541405E+02</pdfrwt>
<totfact> 0.22930916E+01</totfact>
</mgrwt>
</event>
<event>
13    1  0.2101801E-008  0.9161203E+02  0.7546771E-02  0.1407566E+00
          2   -1    0    0  503    0  0.00000000000E+00  0.00000000000E+00  0.66461450528E+03  0.66461450528E+03  0.00000000000E+00 0. -1.
          2   -1    0    0  502    0 -0.00000000000E+00 -0.00000000000E+00 -0.11267557135E+04  0.11267557135E+04  0.00000000000E+00 0. -1.
         24    2    1    2    0    0  0.12246760617E+01  0.10235597159E+02 -0.55770474671E+02  0.97737011792E+02  0.79598431821E+02 0.  0.
         25    2    1    2    0    0  0.41751731458E-01 -0.13060477322E+03  0.13318202977E+03  0.22455341411E+03  0.12501669569E+03 0.  0.
         24    2    1    2    0    0  0.66482452342E+02  0.21743963929E+02 -0.87794397728E+01  0.10550006991E+03  0.78488660015E+02 0.  0.
        -11    1    3    3    0    0  0.37877446107E+02  0.19012568103E+02 -0.32891161739E+02  0.53647061336E+02  0.00000000000E+00 0.  1.
         12    1    3    3    0    0 -0.36652770046E+02 -0.87769709436E+01 -0.22879312932E+02  0.44089950456E+02  0.00000000000E+00 0. -1.
        -13    1    5    5    0    0 -0.36926081697E+01  0.21217468771E+02  0.20244759379E+02  0.29557852061E+02  0.00000000000E+00 0.  1.
         14    1    5    5    0    0  0.70175060512E+02  0.52649515820E+00 -0.29024199152E+02  0.75942217846E+02  0.00000000000E+00 0. -1.
          5    1    4    4  501    0  0.69656247744E+01  0.71130874183E+01 -0.17229100640E+02  0.20446218477E+02  0.47000000000E+01 0. -1.
         -5    1    4    4    0  501 -0.69238730429E+01 -0.13771786064E+03  0.15041113041E+03  0.20410719563E+03  0.47000000000E+01 0. -1.
          1    1    1    2  502    0 -0.66803706858E+02  0.62245321661E+02 -0.94417475573E+03  0.94857956160E+03  0.00000000000E+00 0. -1.
          1    1    1    2  503    0 -0.94517327736E+00  0.36379890471E+02  0.41340143220E+03  0.41500016136E+03  0.00000000000E+00 0. -1.
<mgrwt>
<rscale>  0 0.57740457E+02</rscale>
<asrwt>0</asrwt>
<pdfrwt beam="1">  1        2 0.97737428E-01 0.36392167E+02</pdfrwt>
<pdfrwt beam="2">  1        2 0.16569937E+00 0.91612032E+02</pdfrwt>
<totfact> 0.19352340E+02</totfact>
</mgrwt>
</event>
<event>
13    1  0.2101801E-008  0.9271883E+02  0.7546771E-02  0.1310737E+00
         -3   -1    0    0    0  501 -0.00000000000E+00  0.00000000000E+00  0.13335452526E+04  0.13335452526E+04  0.00000000000E+00 0.  1.
          2   -1    0    0  503    0  0.00000000000E+00 -0.00000000000E+00 -0.91469999643E+03  0.91469999643E+03  0.00000000000E+00 0. -1.
         24    2    1    2    0    0  0.99103757497E+02  0.61496159280E+01  0.26290809728E+03  0.28969557131E+03  0.70309913203E+02 0.  0.
         25    2    1    2    0    0  0.29179771866E+02  0.58003171864E+02  0.97900942911E+02  0.17153823500E+03  0.12499977765E+03 0.  0.
         24    2    1    2    0    0 -0.11232002605E+01 -0.98183420949E+01 -0.40050903914E+02  0.89997604560E+02  0.79986451989E+02 0.  0.
        -13    1    3    3    0    0  0.10864171649E+03  0.10718126159E+02  0.22126857414E+03  0.24673403229E+03  0.00000000000E+00 0.  1.
         14    1    3    3    0    0 -0.95379589881E+01 -0.45685102314E+01  0.41639523137E+02  0.42961539014E+02  0.00000000000E+00 0. -1.
        -13    1    5    5    0    0  0.31431502724E+02  0.13506372362E+02 -0.12460814006E+01  0.34233232052E+02  0.00000000000E+00 0.  1.
         14    1    5    5    0    0 -0.32554702985E+02 -0.23324714457E+02 -0.38804822513E+02  0.55764372508E+02  0.00000000000E+00 0. -1.
          5    1    4    4  502    0  0.66268370827E+02  0.51934777855E+02  0.10322652700E+03  0.13329112499E+03  0.47000000000E+01 0.  1.
         -5    1    4    4    0  502 -0.37088598961E+02  0.60683940094E+01 -0.53255840921E+01  0.38247110017E+02  0.47000000000E+01 0.  1.
          1    1    1    2  503    0 -0.79672383327E+02  0.23666526008E+02 -0.79496851290E+03  0.79930140099E+03  0.00000000000E+00 0. -1.
         -4    1    1    2    0  501 -0.47487945776E+02 -0.78000971706E+02  0.89305563276E+03  0.89771243713E+03  0.00000000000E+00 0.  1.
<mgrwt>
<rscale>  0 0.86821520E+02</rscale>
<asrwt>0</asrwt>
<pdfrwt beam="2">  1        2 0.13451470E+00 0.81299306E+02</pdfrwt>
<pdfrwt beam="1">  1       -3 0.19610960E+00 0.92718827E+02</pdfrwt>
<totfact> 0.35668904E+00</totfact>
</mgrwt>
</event>
<event>
13    1  0.2101801E-008  0.1387805E+03  0.7546771E-02  0.1311568E+00
          2   -1    0    0  503    0  0.00000000000E+00  0.00000000000E+00  0.16372741824E+04  0.16372741824E+04  0.00000000000E+00 0. -1.
          2   -1    0    0  502    0 -0.00000000000E+00 -0.00000000000E+00 -0.11382751409E+04  0.11382751409E+04  0.00000000000E+00 0. -1.
         24    2    1    2    0    0 -0.14853467061E+03 -0.59069931556E+03  0.27871520533E+03  0.67803830815E+03  0.10519292680E+03 0.  0.
         25    2    1    2    0    0  0.22013168342E+03  0.18154718484E+03  0.60371243411E+03  0.67933583413E+03  0.12494452395E+03 0.  0.
         24    2    1    2    0    0 -0.23292068933E+03  0.37108654858E+03 -0.45712017265E+03  0.63861283445E+03  0.83127769251E+02 0.  0.
        -11    1    5    5    0    0 -0.80490024934E+02  0.17417473711E+03 -0.15205768498E+03  0.24482038870E+03  0.00000000000E+00 0.  1.
         12    1    5    5    0    0 -0.15243066439E+03  0.19691181147E+03 -0.30506248766E+03  0.39379244574E+03  0.00000000000E+00 0. -1.
        -11    1    3    3    0    0 -0.94140585146E+02 -0.17382043837E+03  0.91412787335E+02  0.21778955956E+03  0.00000000000E+00 0.  1.
         12    1    3    3    0    0 -0.54394085468E+02 -0.41687887720E+03  0.18730241800E+03  0.46024874859E+03  0.00000000000E+00 0. -1.
          5    1    4    4  501    0  0.19123870468E+03  0.19259032280E+03  0.47711727542E+03  0.54893192575E+03  0.47000000000E+01 0.  1.
         -5    1    4    4    0  501  0.28892978742E+02 -0.11043137962E+02  0.12659515870E+03  0.13040390838E+03  0.47000000000E+01 0.  1.
          1    1    1    2  502    0  0.11884032366E+03  0.71251046417E+02 -0.33750789540E+03  0.36484423197E+03  0.00000000000E+00 0. -1.
          1    1    1    2  503    0  0.42483352865E+02 -0.33185464278E+02  0.41119947009E+03  0.41471811453E+03  0.00000000000E+00 0. -1.
<mgrwt>
<rscale>  0 0.86495251E+02</rscale>
<asrwt>0</asrwt>
<pdfrwt beam="1">  1        2 0.24077562E+00 0.53908351E+02</pdfrwt>
<pdfrwt beam="2">  1        2 0.16739340E+00 0.13878051E+03</pdfrwt>
<totfact> 0.54428785E+01</totfact>
</mgrwt>
</event>
<event>
13    1  0.2101801E-008  0.1217234E+03  0.7546771E-02  0.1290490E+00
          2   -1    0    0  503    0  0.00000000000E+00  0.00000000000E+00  0.17831302297E+04  0.17831302297E+04  0.00000000000E+00 0. -1.
          2   -1    0    0  502    0 -0.00000000000E+00 -0.00000000000E+00 -0.29972252049E+04  0.29972252049E+04  0.00000000000E+00 0. -1.
         24    2    1    2    0    0 -0.10636790613E+02  0.20839945052E+02 -0.58182590866E+03  0.58785023611E+03  0.80616794035E+02 0.  0.
         25    2    1    2    0    0 -0.31853703772E+02 -0.16914463971E+03 -0.33182059178E+03  0.39414921080E+03  0.12499651059E+03 0.  0.
         24    2    1    2    0    0 -0.70180332605E+02 -0.64689172328E+02  0.80511989981E+02  0.14888035803E+03  0.81075349987E+02 0.  0.
        -11    1    3    3    0    0  0.26665189525E+02  0.31275335706E+02 -0.20790420868E+03  0.21192767385E+03  0.00000000000E+00 0.  1.
         12    1    3    3    0    0 -0.37301980137E+02 -0.10435390654E+02 -0.37392169999E+03  0.37592256227E+03  0.00000000000E+00 0. -1.
        -13    1    5    5    0    0 -0.84782184924E+02 -0.44193835279E+02  0.45818041676E+02  0.10602078523E+03  0.00000000000E+00 0.  1.
         14    1    5    5    0    0  0.14601852319E+02 -0.20495337049E+02  0.34693948305E+02  0.42859572803E+02  0.00000000000E+00 0. -1.
          5    1    4    4  501    0 -0.48389363803E+02 -0.13226716789E+03 -0.32316216885E+03  0.35255072203E+03  0.47000000000E+01 0. -1.
         -5    1    4    4    0  501  0.16535660030E+02 -0.36877471812E+02 -0.86584229322E+01  0.41598488765E+02  0.47000000000E+01 0. -1.
          1    1    1    2  502    0  0.82957502801E+02  0.14454392958E+03 -0.20109173376E+04  0.20178115456E+04  0.00000000000E+00 0. -1.
          1    1    1    2  503    0  0.29713324189E+02  0.68449937400E+02  0.16299568729E+04  0.16316640840E+04  0.00000000000E+00 0. -1.
<mgrwt>
<rscale>  0 0.95305331E+02</rscale>
<asrwt>0</asrwt>
<pdfrwt beam="1">  1        2 0.26222504E+00 0.74620879E+02</pdfrwt>
<pdfrwt beam="2">  1        2 0.44076841E+00 0.12172339E+03</pdfrwt>
<totfact> 0.52569687E+00</totfact>
</mgrwt>
</event>
<event>
13    1  0.2101801E-008  0.6759258E+02  0.7546771E-02  0.1489117E+00
          2   -1    0    0  503    0  0.00000000000E+00  0.00000000000E+00  0.17252958327E+04  0.17252958327E+04  0.00000000000E+00 0. -1.
          2   -1    0    0  502    0 -0.00000000000E+00 -0.00000000000E+00 -0.34779119382E+04  0.34779119382E+04  0.00000000000E+00 0. -1.
         24    2    1    2    0    0 -0.41990237179E+03  0.71868334490E+03 -0.15207570256E+03  0.85312888397E+03  0.10898679412E+03 0.  0.
         25    2    1    2    0    0 -0.65458713851E+03 -0.39946056283E+02 -0.27947044891E+03  0.72374611878E+03  0.12499881328E+03 0.  0.
         24    2    1    2    0    0  0.98826717792E+03 -0.71755304169E+03 -0.41949828304E+02  0.12250548592E+04  0.86285789319E+02 0.  0.
        -11    1    3    3    0    0 -0.14376248671E+03  0.31496583656E+03 -0.10474333725E+03  0.36172129808E+03  0.00000000000E+00 0.  1.
         12    1    3    3    0    0 -0.27613988508E+03  0.40371750834E+03 -0.47332365309E+02  0.49140758589E+03  0.00000000000E+00 0. -1.
        -13    1    5    5    0    0  0.41612514676E+03 -0.28933532307E+03  0.23836618259E+02  0.50738865902E+03  0.00000000000E+00 0.  1.
         14    1    5    5    0    0  0.57214203117E+03 -0.42821771862E+03 -0.65786446563E+02  0.71766620021E+03  0.00000000000E+00 0. -1.
          5    1    4    4  501    0 -0.56010530652E+03  0.56970340654E+01 -0.21211325860E+03  0.59896956105E+03  0.47000000000E+01 0. -1.
         -5    1    4    4    0  501 -0.94481831994E+02 -0.45643090349E+02 -0.67357190317E+02  0.12477655774E+03  0.47000000000E+01 0. -1.
          1    1    1    2  502    0  0.61273378766E+02  0.28502425272E+02 -0.18392533858E+04  0.18404944532E+04  0.00000000000E+00 0. -1.
          1    1    1    2  503    0  0.24948953616E+02  0.10313327802E+02  0.56013326008E+03  0.56078345559E+03  0.00000000000E+00 0. -1.
<mgrwt>
<rscale>  0 0.42717306E+02</rscale>
<asrwt>0</asrwt>
<pdfrwt beam="1">  1        2 0.25371998E+00 0.26996574E+02</pdfrwt>
<pdfrwt beam="2">  1        2 0.51145763E+00 0.67592583E+02</pdfrwt>
<totfact> 0.36957289E+00</totfact>
</mgrwt>
</event>
<event>
13    1  0.2101801E-008  0.7331705E+02  0.7546771E-02  0.1446957E+00
          4   -1    0    0  503    0 -0.00000000000E+00  0.00000000000E+00  0.13812747873E+04  0.13812747873E+04  0.00000000000E+00 0. -1.
          2   -1    0    0  502    0  0.00000000000E+00 -0.00000000000E+00 -0.31234108827E+04  0.31234108827E+04  0.00000000000E+00 0. -1.
         24    2    1    2    0    0 -0.65496162536E+02  0.38003811738E+03  0.41993965550E+03  0.57584540237E+03  0.80807766967E+02 0.  0.
         25    2    1    2    0    0  0.13694317205E+03 -0.28051333791E+03 -0.66570596073E+03  0.74580869161E+03  0.12500005283E+03 0.  0.
         24    2    1    2    0    0  0.26558875563E+02 -0.81072325136E+02 -0.38800014148E+02  0.12418442145E+03  0.81475356141E+02 0.  0.
        -11    1    5    5    0    0  0.43621232014E+02 -0.15237938479E+02 -0.66098073576E+00  0.46210859622E+02  0.00000000000E+00 0.  1.
         12    1    5    5    0    0 -0.17062356451E+02 -0.65834386657E+02 -0.38139033412E+02  0.77973561825E+02  0.00000000000E+00 0. -1.
        -11    1    3    3    0    0  0.14746222768E+02  0.28424095124E+02  0.48529861890E+02  0.58142306151E+02  0.00000000000E+00 0.  1.
         12    1    3    3    0    0 -0.80242385303E+02  0.35161402226E+03  0.37140979361E+03  0.51770309622E+03  0.00000000000E+00 0. -1.
          5    1    4    4  501    0  0.14666705948E+03 -0.26115744732E+03 -0.65686113710E+03  0.72194396047E+03  0.47000000000E+01 0.  1.
         -5    1    4    4    0  501 -0.97238874295E+01 -0.19355890589E+02 -0.88448236336E+01  0.23864731139E+02  0.47000000000E+01 0.  1.
          1    1    1    2  502    0 -0.31428166857E+02  0.12143882151E+02 -0.22564060440E+04  0.22566575812E+04  0.00000000000E+00 0. -1.
          3    1    1    2  503    0 -0.66577718220E+02 -0.30596336491E+02  0.79883626801E+03  0.80218957327E+03  0.00000000000E+00 0. -1.
<mgrwt>
<rscale>  0 0.49701662E+02</rscale>
<asrwt>0</asrwt>
<pdfrwt beam="2">  1        2 0.45932513E+00 0.33692782E+02</pdfrwt>
<pdfrwt beam="1">  1        4 0.20312865E+00 0.73317047E+02</pdfrwt>
<totfact> 0.22270267E-01</totfact>
</mgrwt>
</event>
<event>
13    1  0.2101801E-008  0.8956274E+02  0.7546771E-02  0.1413767E+00
          2   -1    0    0  503    0  0.00000000000E+00  0.00000000000E+00  0.86553120738E+03  0.86553120738E+03  0.00000000000E+00 0. -1.
          2   -1    0    0  502    0 -0.00000000000E+00 -0.00000000000E+00 -0.11904201239E+04  0.11904201239E+04  0.00000000000E+00 0. -1.
         24    2    1    2    0    0  0.56508663752E+02  0.15717991934E+03 -0.51611016942E+03  0.54836533296E+03  0.80225153763E+02 0.  0.
         25    2    1    2    0    0 -0.36827643178E+02 -0.14800425226E+03  0.88670821613E+02  0.21621357614E+03  0.12499704761E+03 0.  0.
         24    2    1    2    0    0 -0.83678540831E+01  0.53222066075E+02 -0.42026823166E+01  0.96504506461E+02  0.79955287064E+02 0.  0.
        -11    1    5    5    0    0 -0.30572686067E+02  0.19020902097E+02 -0.31163944134E+02  0.47620114068E+02  0.00000000000E+00 0.  1.
         12    1    5    5    0    0  0.22204831983E+02  0.34201163978E+02  0.26961261817E+02  0.48884392393E+02  0.00000000000E+00 0. -1.
        -13    1    3    3    0    0  0.30378581582E+02  0.60387743471E+02 -0.10254272305E+03  0.12281916720E+03  0.00000000000E+00 0.  1.
         14    1    3    3    0    0  0.26130082170E+02  0.96792175873E+02 -0.41356744636E+03  0.42554616576E+03  0.00000000000E+00 0. -1.
          5    1    4    4  501    0 -0.60155387412E+02 -0.13464133640E+03  0.10793419450E+03  0.18280820672E+03  0.47000000000E+01 0. -1.
         -5    1    4    4    0  501  0.23327744234E+02 -0.13362915861E+02 -0.19263372882E+02  0.33405369421E+02  0.47000000000E+01 0. -1.
          1    1    1    2  502    0  0.31407704609E+02  0.16479068122E+02 -0.54038226522E+03  0.54154500843E+03  0.00000000000E+00 0. -1.
          1    1    1    2  503    0 -0.42720871099E+02 -0.78876801283E+02  0.64713537884E+03  0.65332290726E+03  0.00000000000E+00 0. -1.
<mgrwt>
<rscale>  0 0.56361709E+02</rscale>
<asrwt>0</asrwt>
<pdfrwt beam="1">  1        2 0.12728400E+00 0.89562739E+02</pdfrwt>
<pdfrwt beam="2">  1        2 0.17506178E+00 0.35468346E+02</pdfrwt>
<totfact> 0.13589537E+02</totfact>
</mgrwt>
</event>
<event>
13    1  0.2101801E-008  0.1521827E+03  0.7546771E-02  0.1290740E+00
          2   -1    0    0  503    0  0.00000000000E+00  0.00000000000E+00  0.15583192954E+04  0.15583192954E+04  0.00000000000E+00 0. -1.
          2   -1    0    0  502    0 -0.00000000000E+00 -0.00000000000E+00 -0.18196705539E+04  0.18196705539E+04  0.00000000000E+00 0. -1.
         24    2    1    2    0    0  0.72672642971E+02 -0.60183827600E+02 -0.59617049626E+03  0.61002642861E+03  0.88371810267E+02 0.  0.
         25    2    1    2    0    0  0.15360714388E+02  0.25318394006E+02  0.36846873745E+03  0.39021926624E+03  0.12499957058E+03 0.  0.
         24    2    1    2    0    0  0.93550675911E+02  0.71394818272E+02 -0.13730818658E+03  0.19847458027E+03  0.81790414318E+02 0.  0.
        -11    1    3    3    0    0  0.36743882285E+02 -0.77922920776E+02 -0.46344097009E+03  0.47138055457E+03  0.00000000000E+00 0.  1.
         12    1    3    3    0    0  0.35928760686E+02  0.17739093176E+02 -0.13272952617E+03  0.13864587404E+03  0.00000000000E+00 0. -1.
        -13    1    5    5    0    0  0.37869333962E+02 -0.12081430965E+02 -0.59236568739E+02  0.71337357008E+02  0.00000000000E+00 0.  1.
         14    1    5    5    0    0  0.55681341949E+02  0.83476249237E+02 -0.78071617839E+02  0.12713722327E+03  0.00000000000E+00 0. -1.
          5    1    4    4  501    0 -0.20655445980E+02  0.55360327821E+02  0.30746707483E+03  0.31312857655E+03  0.47000000000E+01 0.  1.
         -5    1    4    4    0  501  0.36016160368E+02 -0.30041933815E+02  0.61001662623E+02  0.77090689696E+02  0.47000000000E+01 0.  1.
          1    1    1    2  502    0 -0.22504685313E+03 -0.77231827750E+02 -0.10233719894E+04  0.10506669643E+04  0.00000000000E+00 0. -1.
          1    1    1    2  503    0  0.43462819861E+02  0.40702443073E+02  0.11270306763E+04  0.11286026098E+04  0.00000000000E+00 0. -1.
<mgrwt>
<rscale>  0 0.95193734E+02</rscale>
<asrwt>0</asrwt>
<pdfrwt beam="1">  1        2 0.22916460E+00 0.59545828E+02</pdfrwt>
<pdfrwt beam="2">  1        2 0.26759861E+00 0.15218274E+03</pdfrwt>
<totfact> 0.26228026E+01</totfact>
</mgrwt>
</event>
<event>
13    1  0.2101801E-008  0.1208653E+03  0.7546771E-02  0.1407557E+00
          2   -1    0    0  502    0  0.00000000000E+00  0.00000000000E+00  0.62032947691E+03  0.62032947691E+03  0.00000000000E+00 0. -1.
          2   -1    0    0  503    0 -0.00000000000E+00 -0.00000000000E+00 -0.32882077354E+04  0.32882077354E+04  0.00000000000E+00 0. -1.
         24    2    1    2    0    0 -0.69176461032E+01  0.69327230477E+02 -0.87721529102E+02  0.13977559017E+03  0.83594438962E+02 0.  0.
         25    2    1    2    0    0  0.52839533153E+02 -0.16527877233E+03  0.28569971763E+03  0.35687417553E+03  0.12500303858E+03 0.  0.
         24    2    1    2    0    0  0.21936943062E+02 -0.17328755581E+01  0.33604955116E+02  0.90453055183E+02  0.81044616447E+02 0.  0.
        -11    1    5    5    0    0  0.37688206144E+02  0.21753049144E+01 -0.13918463844E+02  0.40235015467E+02  0.00000000000E+00 0.  1.
         12    1    5    5    0    0 -0.15751263082E+02 -0.39081804725E+01  0.47523418961E+02  0.50218039717E+02  0.00000000000E+00 0. -1.
        -13    1    3    3    0    0 -0.29042882841E+02  0.53302033544E+00 -0.42308151928E+01  0.29354266327E+02  0.00000000000E+00 0.  1.
         14    1    3    3    0    0  0.22125236738E+02  0.68794210141E+02 -0.83490713909E+02  0.11042132384E+03  0.00000000000E+00 0. -1.
          5    1    4    4  501    0 -0.40412952728E+01 -0.24082988654E+02 -0.79278047636E+01  0.26101005696E+02  0.47000000000E+01 0. -1.
         -5    1    4    4    0  501  0.56880828426E+02 -0.14119578368E+03  0.29362752240E+03  0.33077316983E+03  0.47000000000E+01 0.  1.
          1    1    1    2  502    0 -0.23453512399E+02 -0.14523349966E+02  0.20890896766E+03  0.21072245183E+03  0.00000000000E+00 0. -1.
          1    1    1    2  503    0 -0.44405317713E+02  0.11220776738E+03 -0.31083703698E+04  0.31107119396E+04  0.00000000000E+00 0. -1.
<mgrwt>
<rscale>  0 0.57742585E+02</rscale>
<asrwt>0</asrwt>
<pdfrwt beam="1">  1        2 0.91224921E-01 0.27586137E+02</pdfrwt>
<pdfrwt beam="2">  1        2 0.48355997E+00 0.12086528E+03</pdfrwt>
<totfact> 0.16300371E+01</totfact>
</mgrwt>
</event>
<event>
13    1  0.2101801E-008  0.1230227E+03  0.7546771E-02  0.1284902E+00
          2   -1    0    0  502    0  0.00000000000E+00  0.00000000000E+00  0.19748813812E+04  0.19748813812E+04  0.00000000000E+00 0. -1.
          2   -1    0    0  503    0 -0.00000000000E+00 -0.00000000000E+00 -0.23071254413E+04  0.23071254413E+04  0.00000000000E+00 0. -1.
         24    2    1    2    0    0  0.76866351645E+02 -0.92530929810E+02 -0.52183652164E+03  0.54121725503E+03  0.78309340670E+02 0.  0.
         25    2    1    2    0    0  0.65488576902E+02  0.19360019558E+03  0.33696409120E+03  0.41344700418E+03  0.12499534820E+03 0.  0.
         24    2    1    2    0    0 -0.91401111832E+02  0.89007409405E+02 -0.38649567339E+02  0.15629006756E+03  0.81586236518E+02 0.  0.
        -13    1    3    3    0    0  0.27458412798E+02 -0.56386036354E+02 -0.39977607947E+03  0.40466561906E+03  0.00000000000E+00 0.  1.
         14    1    3    3    0    0  0.49407938847E+02 -0.36144893455E+02 -0.12206044217E+03  0.13655163597E+03  0.00000000000E+00 0. -1.
        -13    1    5    5    0    0 -0.51092538904E+01  0.30670753298E+02 -0.41782335808E+02  0.52082273076E+02  0.00000000000E+00 0.  1.
         14    1    5    5    0    0 -0.86291857942E+02  0.58336656106E+02  0.31327684693E+01  0.10420779448E+03  0.00000000000E+00 0. -1.
          5    1    4    4  501    0 -0.18497872588E+02  0.13552414997E+03  0.20586656797E+03  0.24720861701E+03  0.47000000000E+01 0. -1.
         -5    1    4    4    0  501  0.83986449490E+02  0.58076045607E+02  0.13109752324E+03  0.16623838717E+03  0.47000000000E+01 0. -1.
          1    1    1    2  502    0 -0.15855801004E+01 -0.77797952478E+02  0.15278803055E+04  0.15298605372E+04  0.00000000000E+00 0. -1.
          1    1    1    2  503    0 -0.49368236614E+02 -0.11227872269E+03 -0.16366023678E+04  0.16411919585E+04  0.00000000000E+00 0. -1.
<mgrwt>
<rscale>  0 0.97841210E+02</rscale>
<asrwt>0</asrwt>
<pdfrwt beam="1">  1        2 0.29042374E+00 0.77814108E+02</pdfrwt>
<pdfrwt beam="2">  1        2 0.33928315E+00 0.12302271E+03</pdfrwt>
<totfact> 0.95607224E+00</totfact>
</mgrwt>
</event>
<event>
13    1  0.2101801E-008  0.5213979E+02  0.7546771E-02  0.1463908E+00
          2   -1    0    0  503    0  0.00000000000E+00  0.00000000000E+00  0.16377521643E+04  0.16377521643E+04  0.00000000000E+00 0. -1.
          2   -1    0    0  502    0 -0.00000000000E+00 -0.00000000000E+00 -0.37005760240E+03  0.37005760240E+03  0.00000000000E+00 0. -1.
         24    2    1    2    0    0 -0.14883047858E+03 -0.34451161353E+02 -0.48931937190E+02  0.17775994356E+03  0.76595490615E+02 0.  0.
         25    2    1    2    0    0  0.29200476996E+03 -0.91327656921E+02  0.46976138131E+03  0.57437606068E+03  0.12499830844E+03 0.  0.
         24    2    1    2    0    0 -0.10958340810E+03  0.10741866774E+03 -0.67562256486E+02  0.18640409858E+03  0.81452660848E+02 0.  0.
        -13    1    3    3    0    0 -0.10080962330E+03 -0.57900490790E+02 -0.23625724979E+02  0.11863061099E+03  0.00000000000E+00 0.  1.
         14    1    3    3    0    0 -0.48020855279E+02  0.23449329437E+02 -0.25306212211E+02  0.59129332563E+02  0.00000000000E+00 0. -1.
        -13    1    5    5    0    0 -0.30295991569E+02  0.86606550806E+02 -0.35120438386E+02  0.98244526260E+02  0.00000000000E+00 0.  1.
         14    1    5    5    0    0 -0.79287416528E+02  0.20812116931E+02 -0.32441818100E+02  0.88159572325E+02  0.00000000000E+00 0. -1.
          5    1    4    4  501    0  0.31225980297E+02 -0.80255577976E+01  0.14958629234E+03  0.15309350176E+03  0.47000000000E+01 0. -1.
         -5    1    4    4    0  501  0.26077878967E+03 -0.83302099124E+02  0.32017508897E+03  0.42128255892E+03  0.47000000000E+01 0. -1.
          1    1    1    2  502    0 -0.48217571187E+02 -0.20856483517E+02 -0.68011898485E+02  0.85939196014E+02  0.00000000000E+00 0. -1.
          1    1    1    2  503    0  0.14626687901E+02  0.39216634055E+02  0.98243927270E+03  0.98333046782E+03  0.00000000000E+00 0. -1.
<mgrwt>
<rscale>  0 0.46715499E+02</rscale>
<asrwt>0</asrwt>
<pdfrwt beam="1">  1        2 0.24084590E+00 0.41855518E+02</pdfrwt>
<pdfrwt beam="2">  1        2 0.54420236E-01 0.52139787E+02</pdfrwt>
<totfact> 0.20990475E+02</totfact>
</mgrwt>
</event>
<event>
13    1  0.2101801E-008  0.1539890E+03  0.7546771E-02  0.1261224E+00
          2   -1    0    0  503    0  0.00000000000E+00  0.00000000000E+00  0.36930808071E+03  0.36930808071E+03  0.00000000000E+00 0. -1.
         -3   -1    0    0    0  501 -0.00000000000E+00 -0.00000000000E+00 -0.18200749641E+04  0.18200749641E+04  0.00000000000E+00 0.  1.
         24    2    1    2    0    0 -0.85674669608E+02 -0.35201125367E+02 -0.28528246107E+03  0.31037496129E+03  0.79795148755E+02 0.  0.
         25    2    1    2    0    0  0.20507524429E+03  0.67024873609E+01 -0.18457003536E+01  0.24026612977E+03  0.12499450926E+03 0.  0.
         24    2    1    2    0    0 -0.23728768138E+02  0.23954509643E+02 -0.18687172589E+03  0.20423148183E+03  0.75183663550E+02 0.  0.
        -11    1    5    5    0    0  0.18937483459E+02 -0.60363870510E+01 -0.10707187103E+03  0.10890111025E+03  0.00000000000E+00 0.  1.
         12    1    5    5    0    0 -0.42666251597E+02  0.29990896694E+02 -0.79799854858E+02  0.95330371578E+02  0.00000000000E+00 0. -1.
        -11    1    3    3    0    0 -0.48490502423E+02 -0.38223318451E+02 -0.25487095616E+03  0.26224331296E+03  0.00000000000E+00 0.  1.
         12    1    3    3    0    0 -0.37184167184E+02  0.30221930846E+01 -0.30411504904E+02  0.48131648328E+02  0.00000000000E+00 0. -1.
          5    1    4    4  502    0  0.19225092297E+03 -0.34757493097E+02  0.77275971038E+01  0.19557685565E+03  0.47000000000E+01 0. -1.
         -5    1    4    4    0  502  0.12824321323E+02  0.41459980458E+02 -0.95732974574E+01  0.44689274118E+02  0.47000000000E+01 0. -1.
          1    1    1    2  503    0 -0.12819874293E+03  0.75520160705E+02  0.20326277216E+03  0.25190070843E+03  0.00000000000E+00 0. -1.
         -4    1    1    2    0  501  0.32526936385E+02 -0.70976032343E+02 -0.11800297682E+04  0.11826097635E+04  0.00000000000E+00 0.  1.
<mgrwt>
<rscale>  0 0.10964757E+03</rscale>
<asrwt>0</asrwt>
<pdfrwt beam="1">  1        2 0.54310012E-01 0.15398905E+03</pdfrwt>
<pdfrwt beam="2">  1       -3 0.26765808E+00 0.78074316E+02</pdfrwt>
<totfact> 0.39835772E+00</totfact>
</mgrwt>
</event>
<event>
13    1  0.2101801E-008  0.5825930E+02  0.7546771E-02  0.1485524E+00
          2   -1    0    0  502    0  0.00000000000E+00  0.00000000000E+00  0.13465162110E+04  0.13465162110E+04  0.00000000000E+00 0. -1.
          2   -1    0    0  503    0 -0.00000000000E+00 -0.00000000000E+00 -0.21044128157E+04  0.21044128157E+04  0.00000000000E+00 0. -1.
         24    2    1    2    0    0 -0.19081074154E+03 -0.12795586685E+02 -0.49796251037E+03  0.53802473833E+03  0.70224576935E+02 0.  0.
         25    2    1    2    0    0  0.16156801115E+03  0.39592228484E+02  0.16137904753E+03  0.26332494947E+03  0.12500026098E+03 0.  0.
         24    2    1    2    0    0 -0.42662659416E+02  0.99750091956E+01  0.13660172496E+03  0.16462651318E+03  0.80760474642E+02 0.  0.
        -11    1    3    3    0    0 -0.25096143580E+02  0.20547527301E+02 -0.11349301262E+03  0.11803677908E+03  0.00000000000E+00 0.  1.
         12    1    3    3    0    0 -0.16571459796E+03 -0.33343113986E+02 -0.38446949774E+03  0.41998795926E+03  0.00000000000E+00 0. -1.
        -13    1    5    5    0    0 -0.10745588404E+02 -0.21472131558E+02  0.10984564764E+03  0.11243925653E+03  0.00000000000E+00 0.  1.
         14    1    5    5    0    0 -0.31917071012E+02  0.31447140753E+02  0.26756077321E+02  0.52187256655E+02  0.00000000000E+00 0. -1.
          5    1    4    4  501    0  0.47357893128E+02  0.71733627981E+02  0.91132581462E+02  0.12536235810E+03  0.47000000000E+01 0. -1.
         -5    1    4    4    0  501  0.11421011802E+03 -0.32141399496E+02  0.70246466073E+02  0.13796259137E+03  0.47000000000E+01 0. -1.
          1    1    1    2  502    0  0.40232048004E+02 -0.42099412266E+02  0.96246937557E+03  0.96422936955E+03  0.00000000000E+00 0. -1.
          1    1    1    2  503    0  0.31673341797E+02  0.53277612715E+01 -0.15203842424E+04  0.15207234562E+04  0.00000000000E+00 0. -1.
<mgrwt>
<rscale>  0 0.43257253E+02</rscale>
<asrwt>0</asrwt>
<pdfrwt beam="1">  1        2 0.19801709E+00 0.58259297E+02</pdfrwt>
<pdfrwt beam="2">  1        2 0.30947247E+00 0.32118307E+02</pdfrwt>
<totfact> 0.28838953E+01</totfact>
</mgrwt>
</event>
<event>
13    1  0.2101801E-008  0.6632173E+02  0.7546771E-02  0.1427515E+00
          2   -1    0    0  503    0  0.00000000000E+00  0.00000000000E+00  0.64409318846E+03  0.64409318846E+03  0.00000000000E+00 0. -1.
          2   -1    0    0  502    0 -0.00000000000E+00 -0.00000000000E+00 -0.38865001657E+04  0.38865001657E+04  0.00000000000E+00 0. -1.
         24    2    1    2    0    0  0.85334055615E+02  0.35865902148E+02 -0.25852200914E+04  0.25880769878E+04  0.78811862751E+02 0.  0.
         25    2    1    2    0    0  0.10747311064E+03  0.65617251839E+02 -0.30285679636E+03  0.35100273695E+03  0.12499835596E+03 0.  0.
         24    2    1    2    0    0 -0.14039687549E+03 -0.41199465469E+02 -0.60426403789E+02  0.17733409874E+03  0.79920921539E+02 0.  0.
        -11    1    3    3    0    0  0.37341515676E+02  0.22982966850E+02 -0.41919466556E+03  0.42148164040E+03  0.00000000000E+00 0.  1.
         12    1    3    3    0    0  0.47992539940E+02  0.12882935298E+02 -0.21660254258E+04  0.21665953474E+04  0.00000000000E+00 0. -1.
        -11    1    5    5    0    0 -0.10842676619E+03 -0.20224811956E+02 -0.55320300294E+01  0.11043554682E+03  0.00000000000E+00 0.  1.
         12    1    5    5    0    0 -0.31970109295E+02 -0.20974653513E+02 -0.54894373760E+02  0.66898551919E+02  0.00000000000E+00 0. -1.
          5    1    4    4  501    0 -0.24794888065E+02  0.11804122769E+02 -0.93333773486E+02  0.97403321615E+02  0.47000000000E+01 0.  1.
         -5    1    4    4    0  501  0.13226799871E+03  0.53813129070E+02 -0.20952302288E+03  0.25359941533E+03  0.47000000000E+01 0.  1.
          1    1    1    2  502    0 -0.42764716997E+02  0.53322589325E+01 -0.85153164863E+03  0.85262148849E+03  0.00000000000E+00 0. -1.
          1    1    1    2  503    0 -0.96455737722E+01 -0.65615947451E+02  0.55762796297E+03  0.56155804218E+03  0.00000000000E+00 0. -1.
<mgrwt>
<rscale>  0 0.53462066E+02</rscale>
<asrwt>0</asrwt>
<pdfrwt beam="1">  1        2 0.94719588E-01 0.66321727E+02</pdfrwt>
<pdfrwt beam="2">  1        2 0.57154413E+00 0.43095870E+02</pdfrwt>
<totfact> 0.82684919E+00</totfact>
</mgrwt>
</event>
<event>
13    1  0.2101801E-008  0.3488123E+03  0.7546771E-02  0.1164996E+00
          2   -1    0    0  502    0  0.00000000000E+00  0.00000000000E+00  0.55669402357E+04  0.55669402357E+04  0.00000000000E+00 0. -1.
          2   -1    0    0  503    0 -0.00000000000E+00 -0.00000000000E+00 -0.10647776487E+04  0.10647776487E+04  0.00000000000E+00 0. -1.
         24    2    1    2    0    0  0.61408351283E+03  0.62510234612E+02 -0.46228847384E+03  0.77644038850E+03  0.90238316067E+02 0.  0.
         25    2    1    2    0    0 -0.41642987133E+03  0.29559256394E+03  0.13010224622E+04  0.14032378018E+04  0.12501231748E+03 0.  0.
         24    2    1    2    0    0 -0.54726891153E+02  0.50005776156E+00  0.22848822360E+03  0.24670467679E+03  0.75239926574E+02 0.  0.
        -11    1    5    5    0    0 -0.26255008335E+02  0.24101322193E+02  0.35858952709E+02  0.50557528456E+02  0.00000000000E+00 0.  1.
         12    1    5    5    0    0 -0.28471882818E+02 -0.23601264432E+02  0.19262927089E+03  0.19614714833E+03  0.00000000000E+00 0. -1.
        -13    1    3    3    0    0  0.21691303657E+03  0.30147265489E+01 -0.11514400090E+03  0.24559823891E+03  0.00000000000E+00 0.  1.
         14    1    3    3    0    0  0.39717047626E+03  0.59495508063E+02 -0.34714447294E+03  0.53084214959E+03  0.00000000000E+00 0. -1.
          5    1    4    4  501    0 -0.12862766618E+03  0.16564712620E+03  0.50219182333E+03  0.54424513259E+03  0.47000000000E+01 0. -1.
         -5    1    4    4    0  501 -0.28780220515E+03  0.12994543774E+03  0.79883063887E+03  0.85899266917E+03  0.47000000000E+01 0. -1.
          1    1    1    2  502    0  0.77005619467E+02 -0.91443137828E+02  0.37412734503E+04  0.37431829694E+04  0.00000000000E+00 0. -1.
          1    1    1    2  503    0 -0.21993236981E+03 -0.26715971849E+03 -0.30633307523E+03  0.46215204798E+03  0.00000000000E+00 0. -1.
<mgrwt>
<rscale>  0 0.18293121E+03</rscale>
<asrwt>0</asrwt>
<pdfrwt beam="1">  1        2 0.81866767E+00 0.95936498E+02</pdfrwt>
<pdfrwt beam="2">  1        2 0.15658495E+00 0.34881225E+03</pdfrwt>
<totfact> 0.10191851E-01</totfact>
</mgrwt>
</event>
<event>
13    1  0.2101801E-008  0.4670760E+02  0.7546771E-02  0.1475475E+00
          2   -1    0    0  503    0  0.00000000000E+00  0.00000000000E+00  0.35158293932E+04  0.35158293932E+04  0.00000000000E+00 0. -1.
          2   -1    0    0  502    0 -0.00000000000E+00 -0.00000000000E+00 -0.71294870723E+03  0.71294870723E+03  0.00000000000E+00 0. -1.
         24    2    1    2    0    0 -0.18490585281E+03  0.10520071642E+03 -0.50502701543E+03  0.55394083030E+03  0.80875163189E+02 0.  0.
         25    2    1    2    0    0  0.16137156578E+03 -0.12357805787E+03  0.11318314104E+04  0.11567107455E+04  0.12500035391E+03 0.  0.
         24    2    1    2    0    0  0.31070901097E+02  0.14864066520E+02 -0.32624241996E+02  0.95966640027E+02  0.83420102276E+02 0.  0.
        -11    1    5    5    0    0  0.18625105000E+02  0.48375899928E+02 -0.30523846223E+02  0.60156690554E+02  0.00000000000E+00 0.  1.
         12    1    5    5    0    0  0.12445796097E+02 -0.33511833408E+02 -0.21003957726E+01  0.35809949473E+02  0.00000000000E+00 0. -1.
        -11    1    3    3    0    0 -0.63286817108E+02  0.48960291119E+02 -0.28776561724E+03  0.29868274439E+03  0.00000000000E+00 0.  1.
         12    1    3    3    0    0 -0.12161903570E+03  0.56240425300E+02 -0.21726139819E+03  0.25525808592E+03  0.00000000000E+00 0. -1.
          5    1    4    4  501    0  0.28882966037E+02 -0.72471203012E+02  0.64042221961E+03  0.64517362807E+03  0.47000000000E+01 0.  1.
         -5    1    4    4    0  501  0.13248859974E+03 -0.51106854861E+02  0.49140919079E+03  0.51153711739E+03  0.47000000000E+01 0.  1.
          1    1    1    2  502    0 -0.60671776878E+01  0.46494999282E+02 -0.10136993539E+03  0.11168911945E+03  0.00000000000E+00 0. -1.
          1    1    1    2  503    0 -0.14694363812E+01 -0.42981724348E+02  0.23100704684E+04  0.23104707652E+04  0.00000000000E+00 0. -1.
<mgrwt>
<rscale>  0 0.44819036E+02</rscale>
<asrwt>0</asrwt>
<pdfrwt beam="1">  1        2 0.51703372E+00 0.43006835E+02</pdfrwt>
<pdfrwt beam="2">  1        2 0.10484540E+00 0.46707599E+02</pdfrwt>
<totfact> 0.12413958E+01</totfact>
</mgrwt>
</event>
<event>
13    1  0.2101801E-008  0.3084550E+02  0.7546771E-02  0.1606638E+00
         -1   -1    0    0    0  501  0.00000000000E+00  0.00000000000E+00  0.17834572577E+04  0.17834572577E+04  0.00000000000E+00 0.  1.
         -1   -1    0    0    0  502 -0.00000000000E+00 -0.00000000000E+00 -0.22194432988E+04  0.22194432988E+04  0.00000000000E+00 0.  1.
         24    2    1    2    0    0 -0.15245060542E+03 -0.41746183243E+02 -0.77928214162E+03  0.79697110166E+03  0.53836323446E+02 0.  0.
         25    2    1    2    0    0  0.32094001811E+02  0.33711694519E+03 -0.15926309780E+03  0.39454705346E+03  0.12499913357E+03 0.  0.
         24    2    1    2    0    0  0.84667549891E+02 -0.25187930748E+03 -0.19815917051E+03  0.34061091667E+03  0.78338752591E+02 0.  0.
        -11    1    5    5    0    0  0.16413622117E+02 -0.23194523732E+02 -0.56077271857E+02  0.62865358832E+02  0.00000000000E+00 0.  1.
         12    1    5    5    0    0  0.68253927775E+02 -0.22868478375E+03 -0.14208189865E+03  0.27774555784E+03  0.00000000000E+00 0. -1.
        -11    1    3    3    0    0 -0.75191589003E+02  0.28897070341E+01 -0.42605535447E+03  0.43264915409E+03  0.00000000000E+00 0.  1.
         12    1    3    3    0    0 -0.77259016415E+02 -0.44635890277E+02 -0.35322678716E+03  0.36432194757E+03  0.00000000000E+00 0. -1.
          5    1    4    4  503    0  0.39078298445E+01  0.10807772343E+03 -0.11789502099E+03  0.16005433893E+03  0.47000000000E+01 0. -1.
         -5    1    4    4    0  503  0.28186171966E+02  0.22903922176E+03 -0.41368076810E+02  0.23449271454E+03  0.47000000000E+01 0. -1.
         -2    1    1    2    0  502  0.10539115656E+02 -0.25637527033E+02 -0.88465948346E+03  0.88509364331E+03  0.00000000000E+00 0.  1.
         -2    1    1    2    0  501  0.25149938061E+02 -0.17853927428E+02  0.15853778523E+04  0.15856778414E+04  0.00000000000E+00 0.  1.
<mgrwt>
<rscale>  0 0.29240612E+02</rscale>
<asrwt>0</asrwt>
<pdfrwt beam="1">  1       -1 0.26227313E+00 0.30845495E+02</pdfrwt>
<pdfrwt beam="2">  1       -1 0.32638872E+00 0.27719231E+02</pdfrwt>
<totfact> 0.26391410E-02</totfact>
</mgrwt>
</event>
<event>
13    1  0.2101801E-008  0.2295313E+03  0.7546771E-02  0.1220192E+00
          2   -1    0    0  502    0  0.00000000000E+00  0.00000000000E+00  0.15487391360E+04  0.15487391360E+04  0.00000000000E+00 0. -1.
          2   -1    0    0  503    0 -0.00000000000E+00 -0.00000000000E+00 -0.33083423478E+04  0.33083423478E+04  0.00000000000E+00 0. -1.
         24    2    1    2    0    0  0.13329942922E+03 -0.25721235659E+02 -0.55968583260E+03  0.58127413069E+03  0.78746834864E+02 0.  0.
         25    2    1    2    0    0 -0.37799684792E+03  0.24320778630E+03  0.16492432597E+03  0.49482930653E+03  0.12499745976E+03 0.  0.
         24    2    1    2    0    0  0.16560453423E+03  0.49295644420E+02  0.59095463322E+03  0.62076441718E+03  0.79159085333E+02 0.  0.
        -11    1    5    5    0    0  0.11278816607E+03 -0.54257713872E+01  0.31998758223E+03  0.33932677787E+03  0.00000000000E+00 0.  1.
         12    1    5    5    0    0  0.52816368158E+02  0.54721415807E+02  0.27096705100E+03  0.28143763931E+03  0.00000000000E+00 0. -1.
        -11    1    3    3    0    0  0.41553102874E+02  0.25245395788E+02 -0.12563770019E+03  0.13471756410E+03  0.00000000000E+00 0.  1.
         12    1    3    3    0    0  0.91746326350E+02 -0.50966631447E+02 -0.43404813241E+03  0.44655656659E+03  0.00000000000E+00 0. -1.
          5    1    4    4  501    0 -0.35122147358E+03  0.18458365017E+03  0.11487401418E+03  0.41309293936E+03  0.47000000000E+01 0. -1.
         -5    1    4    4    0  501 -0.26775374346E+02  0.58624136127E+02  0.50050311790E+02  0.81736367171E+02  0.47000000000E+01 0. -1.
          1    1    1    2  502    0  0.53323924201E+02 -0.19165503256E+03  0.58514205688E+03  0.61803423783E+03  0.00000000000E+00 0. -1.
          1    1    1    2  503    0  0.25768960271E+02 -0.75127162495E+02 -0.25409383953E+04  0.25421793915E+04  0.00000000000E+00 0. -1.
<mgrwt>
<rscale>  0 0.13501939E+03</rscale>
<asrwt>0</asrwt>
<pdfrwt beam="1">  1        2 0.22775576E+00 0.22953132E+03</pdfrwt>
<pdfrwt beam="2">  1        2 0.48652093E+00 0.79423736E+02</pdfrwt>
<totfact> 0.45169886E+00</totfact>
</mgrwt>
</event>
<event>
13    1  0.2101801E-008  0.9646977E+02  0.7546771E-02  0.1405177E+00
          2   -1    0    0  503    0  0.00000000000E+00  0.00000000000E+00  0.35730756188E+04  0.35730756188E+04  0.00000000000E+00 0. -1.
          2   -1    0    0  502    0 -0.00000000000E+00 -0.00000000000E+00 -0.18345871285E+04  0.18345871285E+04  0.00000000000E+00 0. -1.
         24    2    1    2    0    0 -0.10558142627E+04 -0.15798368216E+03 -0.65883951919E+03  0.12586121584E+04  0.10164867050E+03 0.  0.
         25    2    1    2    0    0 -0.75294879246E+02 -0.28926281329E+02  0.31317249393E+03  0.34671252925E+03  0.12500607342E+03 0.  0.
         24    2    1    2    0    0  0.10380130621E+04  0.15225954403E+03  0.96238643589E+03  0.14258851474E+04  0.79414833062E+02 0.  0.
        -13    1    5    5    0    0  0.72782419402E+03  0.10960196279E+03  0.72319680438E+03  0.10318693064E+04  0.00000000000E+00 0.  1.
         14    1    5    5    0    0  0.31018886805E+03  0.42657581242E+02  0.23918963151E+03  0.39401584095E+03  0.00000000000E+00 0. -1.
        -13    1    3    3    0    0 -0.27938228243E+03 -0.74100718296E+02 -0.14122696897E+03  0.32169928964E+03  0.00000000000E+00 0.  1.
         14    1    3    3    0    0 -0.77643198026E+03 -0.83882963865E+02 -0.51761255022E+03  0.93691286881E+03  0.00000000000E+00 0. -1.
          5    1    4    4  501    0  0.18740387289E+01  0.24859346862E+02  0.18986358546E+03  0.19155095988E+03  0.47000000000E+01 0. -1.
         -5    1    4    4    0  501 -0.77168917975E+02 -0.53785628191E+02  0.12330890847E+03  0.15516156937E+03  0.47000000000E+01 0. -1.
          1    1    1    2  502    0  0.72736419699E+02  0.63381430345E+02 -0.62345403980E+03  0.63087457724E+03  0.00000000000E+00 0. -1.
          1    1    1    2  503    0  0.20359660166E+02 -0.28731010885E+02  0.17452231195E+04  0.17455783349E+04  0.00000000000E+00 0. -1.
<mgrwt>
<rscale>  0 0.58284072E+02</rscale>
<asrwt>0</asrwt>
<pdfrwt beam="1">  1        2 0.52545230E+00 0.35213446E+02</pdfrwt>
<pdfrwt beam="2">  1        2 0.26979222E+00 0.96469771E+02</pdfrwt>
<totfact> 0.29084092E+00</totfact>
</mgrwt>
</event>
<event>
13    1  0.2101801E-008  0.7029665E+02  0.7546771E-02  0.1376655E+00
          2   -1    0    0  502    0  0.00000000000E+00  0.00000000000E+00  0.23220119632E+04  0.23220119632E+04  0.00000000000E+00 0. -1.
          4   -1    0    0  503    0 -0.00000000000E+00 -0.00000000000E+00 -0.67546837820E+02  0.67546837820E+02  0.00000000000E+00 0. -1.
         24    2    1    2    0    0 -0.21322830882E+02 -0.33437188288E+01  0.44247286971E+03  0.45170399918E+03  0.88252019081E+02 0.  0.
         25    2    1    2    0    0 -0.81014276066E+02 -0.31434771630E+02  0.12271101629E+04  0.12365178576E+04  0.12500241007E+03 0.  0.
         24    2    1    2    0    0 -0.20782796947E+02  0.27707845610E+02  0.17543364294E+03  0.19490788741E+03  0.77540132460E+02 0.  0.
        -11    1    3    3    0    0 -0.44168345388E+02 -0.43091936183E+00  0.40713365553E+03  0.40952270009E+03  0.00000000000E+00 0.  1.
         12    1    3    3    0    0  0.22845514506E+02 -0.29127994669E+01  0.35339214186E+02  0.42181299092E+02  0.00000000000E+00 0. -1.
        -13    1    5    5    0    0 -0.47283290531E+02  0.20337508124E+02  0.14510569393E+03  0.15396423679E+03  0.00000000000E+00 0.  1.
         14    1    5    5    0    0  0.26500493584E+02  0.73703374869E+01  0.30327949020E+02  0.40943650626E+02  0.00000000000E+00 0. -1.
          5    1    4    4  501    0 -0.19053965916E+02 -0.61537304353E+01  0.24287857394E+02  0.31826278956E+02  0.47000000000E+01 0.  1.
         -5    1    4    4    0  501 -0.61960310150E+02 -0.25281041194E+02  0.12028223055E+04  0.12046915786E+04  0.47000000000E+01 0.  1.
          1    1    1    2  502    0  0.63690346041E+02 -0.55459893184E+01  0.43561381070E+03  0.44028014973E+03  0.00000000000E+00 0. -1.
          3    1    1    2  503    0  0.59429557853E+02  0.12616634166E+02 -0.26165360838E+02  0.66148907112E+02  0.00000000000E+00 0. -1.
<mgrwt>
<rscale>  0 0.65351391E+02</rscale>
<asrwt>0</asrwt>
<pdfrwt beam="1">  1        2 0.34147229E+00 0.70296646E+02</pdfrwt>
<pdfrwt beam="2">  1        4 0.99333600E-02 0.60754027E+02</pdfrwt>
<totfact> 0.22887260E+02</totfact>
</mgrwt>
</event>
<event>
13    1  0.2101801E-008  0.1476101E+03  0.7546771E-02  0.1366151E+00
          2   -1    0    0  502    0  0.00000000000E+00  0.00000000000E+00  0.25444635511E+04  0.25444635511E+04  0.00000000000E+00 0. -1.
          2   -1    0    0  503    0 -0.00000000000E+00 -0.00000000000E+00 -0.17594723642E+04  0.17594723642E+04  0.00000000000E+00 0. -1.
         24    2    1    2    0    0  0.18440396070E+03 -0.60645387294E+03  0.28563791593E+03  0.69794321393E+03  0.61193056243E+02 0.  0.
         25    2    1    2    0    0 -0.43193118715E+02  0.15036804109E+03  0.69223885225E+02  0.21188295210E+03  0.12500498317E+03 0.  0.
         24    2    1    2    0    0 -0.26426908588E+03  0.36400622903E+03  0.97261503024E+03  0.10745993968E+04  0.80281890899E+02 0.  0.
        -11    1    5    5    0    0 -0.13622463084E+03  0.14477188428E+03  0.50082491959E+03  0.53883360011E+03  0.00000000000E+00 0.  1.
         12    1    5    5    0    0 -0.12804445504E+03  0.21923434474E+03  0.47179011065E+03  0.53576579668E+03  0.00000000000E+00 0. -1.
        -11    1    3    3    0    0  0.12775011220E+03 -0.38150113864E+03  0.15100179829E+03  0.42972636996E+03  0.00000000000E+00 0.  1.
         12    1    3    3    0    0  0.56653848497E+02 -0.22495273430E+03  0.13463611763E+03  0.26821684398E+03  0.00000000000E+00 0. -1.
          5    1    4    4  501    0 -0.25860539507E+02  0.11167311976E+03  0.10551976895E+03  0.15587227085E+03  0.47000000000E+01 0. -1.
         -5    1    4    4    0  501 -0.17332579208E+02  0.38694921334E+02 -0.36295883723E+02  0.56010681251E+02  0.47000000000E+01 0. -1.
          1    1    1    2  502    0  0.25455948652E+02 -0.18648035091E+02  0.88442399729E+03  0.88498675782E+03  0.00000000000E+00 0. -1.
          1    1    1    2  503    0  0.97602295243E+02  0.11072763792E+03 -0.14269096418E+04  0.14345235946E+04  0.00000000000E+00 0. -1.
<mgrwt>
<rscale>  0 0.68248977E+02</rscale>
<asrwt>0</asrwt>
<pdfrwt beam="1">  1        2 0.37418582E+00 0.31555579E+02</pdfrwt>
<pdfrwt beam="2">  1        2 0.25874594E+00 0.14761012E+03</pdfrwt>
<totfact> 0.10530492E+01</totfact>
</mgrwt>
</event>
<event>
13    1  0.2101801E-008  0.7523183E+02  0.7546771E-02  0.1400358E+00
          2   -1    0    0  502    0  0.00000000000E+00  0.00000000000E+00  0.12137972195E+04  0.12137972195E+04  0.00000000000E+00 0. -1.
          2   -1    0    0  503    0 -0.00000000000E+00 -0.00000000000E+00 -0.76681635829E+03  0.76681635829E+03  0.00000000000E+00 0. -1.
         24    2    1    2    0    0 -0.16860569027E+03 -0.21997492155E+03 -0.26000031350E+03  0.38818185541E+03  0.79171617036E+02 0.  0.
         25    2    1    2    0    0  0.22817038055E+03  0.18905300934E+03 -0.11223351680E+02  0.32179296337E+03  0.12498793841E+03 0.  0.
         24    2    1    2    0    0  0.12685137332E+02  0.87254836731E+01  0.28421628252E+02  0.87354585235E+02  0.81154099309E+02 0.  0.
        -13    1    5    5    0    0 -0.27624915666E+02  0.13976121285E+02 -0.88544752735E+01  0.32200460620E+02  0.00000000000E+00 0.  1.
         14    1    5    5    0    0  0.40310052998E+02 -0.52506376123E+01  0.37276103526E+02  0.55154124615E+02  0.00000000000E+00 0. -1.
        -13    1    3    3    0    0  0.43541323978E+01 -0.33821885725E+02 -0.32913059887E+02  0.47393543168E+02  0.00000000000E+00 0.  1.
         14    1    3    3    0    0 -0.17295982267E+03 -0.18615303583E+03 -0.22708725361E+03  0.34078831224E+03  0.00000000000E+00 0. -1.
          5    1    4    4  501    0  0.22132432486E+03  0.14328036343E+03  0.22022549039E+02  0.26461444024E+03  0.47000000000E+01 0.  1.
         -5    1    4    4    0  501  0.68460556958E+01  0.45772645913E+02 -0.33245900720E+02  0.57178523128E+02  0.47000000000E+01 0.  1.
          1    1    1    2  502    0 -0.71107941380E+02 -0.24692691453E+02  0.93277475178E+03  0.93580703454E+03  0.00000000000E+00 0. -1.
          1    1    1    2  503    0 -0.11418862301E+01  0.46889119988E+02 -0.24299185368E+03  0.24747713921E+03  0.00000000000E+00 0. -1.
<mgrwt>
<rscale>  0 0.59402021E+02</rscale>
<asrwt>0</asrwt>
<pdfrwt beam="1">  1        2 0.17849959E+00 0.75231827E+02</pdfrwt>
<pdfrwt beam="2">  1        2 0.11276711E+00 0.46903022E+02</pdfrwt>
<totfact> 0.14902323E+02</totfact>
</mgrwt>
</event>
<event>
13    1  0.2101801E-008  0.7672680E+02  0.7546771E-02  0.1373782E+00
          2   -1    0    0  502    0  0.00000000000E+00  0.00000000000E+00  0.92513956971E+03  0.92513956971E+03  0.00000000000E+00 0. -1.
          2   -1    0    0  503    0 -0.00000000000E+00 -0.00000000000E+00 -0.82309936225E+03  0.82309936225E+03  0.00000000000E+00 0. -1.
         24    2    1    2    0    0 -0.10617171776E+03  0.24506179489E+03 -0.53944044633E+03  0.60735025000E+03  0.80935863921E+02 0.  0.
         25    2    1    2    0    0  0.48357056856E+02  0.66042297881E+02  0.22541114471E+03  0.27043799829E+03  0.12500614665E+03 0.  0.
         24    2    1    2    0    0  0.10983909972E+03 -0.19598121533E+03  0.33428357224E+03  0.41071981808E+03  0.80448727184E+02 0.  0.
        -11    1    5    5    0    0 -0.13041071516E+02 -0.18474423880E+02  0.27879049026E+02  0.35897287622E+02  0.00000000000E+00 0.  1.
         12    1    5    5    0    0  0.12288017124E+03 -0.17750679145E+03  0.30640452321E+03  0.37482253046E+03  0.00000000000E+00 0. -1.
        -13    1    3    3    0    0 -0.13265587198E+02  0.25407466945E+00 -0.97200178411E+01  0.16447464986E+02  0.00000000000E+00 0.  1.
         14    1    3    3    0    0 -0.92906130559E+02  0.24480772022E+03 -0.52972042849E+03  0.59090278501E+03  0.00000000000E+00 0. -1.
          5    1    4    4  501    0  0.27735088308E+02 -0.19220938065E+02  0.15254579235E+03  0.15630415333E+03  0.47000000000E+01 0. -1.
         -5    1    4    4    0  501  0.20621968548E+02  0.85263235947E+02  0.72865352363E+02  0.11413384496E+03  0.47000000000E+01 0. -1.
          1    1    1    2  502    0 -0.49412930521E+02 -0.58191482131E+02  0.26086289519E+03  0.27180385646E+03  0.00000000000E+00 0. -1.
          1    1    1    2  503    0 -0.26115083034E+01 -0.56931395318E+02 -0.17907695835E+03  0.18792700913E+03  0.00000000000E+00 0. -1.
<mgrwt>
<rscale>  0 0.66126826E+02</rscale>
<asrwt>0</asrwt>
<pdfrwt beam="1">  1        2 0.13604994E+00 0.76726802E+02</pdfrwt>
<pdfrwt beam="2">  1        2 0.12104402E+00 0.56991260E+02</pdfrwt>
<totfact> 0.19648550E+02</totfact>
</mgrwt>
</event>
<event>
13    1  0.2101801E-008  0.1014637E+03  0.7546771E-02  0.1387381E+00
          2   -1    0    0  502    0  0.00000000000E+00  0.00000000000E+00  0.14517029594E+04  0.14517029594E+04  0.00000000000E+00 0. -1.
          2   -1    0    0  503    0 -0.00000000000E+00 -0.00000000000E+00 -0.14559170722E+04  0.14559170722E+04  0.00000000000E+00 0. -1.
         24    2    1    2    0    0  0.20045318408E+02 -0.76436144260E+02 -0.18122170182E+03  0.21354252243E+03  0.80714340345E+02 0.  0.
         25    2    1    2    0    0 -0.20432925603E+03 -0.13633334858E+02  0.73444088715E+03  0.77263521193E+03  0.12500176525E+03 0.  0.
         24    2    1    2    0    0  0.74917141473E+02  0.29254210806E+01 -0.12184973370E+03  0.16408436596E+03  0.80344168280E+02 0.  0.
        -11    1    3    3    0    0 -0.26757615814E+02 -0.49415841476E+01 -0.37411390478E+02  0.46260149107E+02  0.00000000000E+00 0.  1.
         12    1    3    3    0    0  0.46802934222E+02 -0.71494560113E+02 -0.14381031134E+03  0.16728237333E+03  0.00000000000E+00 0. -1.
        -13    1    5    5    0    0  0.78644378621E+01  0.87169332442E-01  0.12002300592E+02  0.14349641141E+02  0.00000000000E+00 0.  1.
         14    1    5    5    0    0  0.67052703611E+02  0.28382517482E+01 -0.13385203429E+03  0.14973472482E+03  0.00000000000E+00 0. -1.
          5    1    4    4  501    0 -0.82255988832E+02  0.45204410473E+02  0.41680677950E+03  0.42726978346E+03  0.47000000000E+01 0.  1.
         -5    1    4    4    0  501 -0.12207326720E+03 -0.58837745332E+02  0.31763410765E+03  0.34536542847E+03  0.47000000000E+01 0.  1.
          1    1    1    2  502    0  0.31492920095E+02  0.22278815929E+02  0.65797901346E+03  0.65910889223E+03  0.00000000000E+00 0. -1.
          1    1    1    2  503    0  0.77873876055E+02  0.64865242109E+02 -0.10935625778E+04  0.10982490391E+04  0.00000000000E+00 0. -1.
<mgrwt>
<rscale>  0 0.62562919E+02</rscale>
<asrwt>0</asrwt>
<pdfrwt beam="1">  1        2 0.21348573E+00 0.38576543E+02</pdfrwt>
<pdfrwt beam="2">  1        2 0.21410545E+00 0.10146370E+03</pdfrwt>
<totfact> 0.47780204E+01</totfact>
</mgrwt>
</event>
<event>
13    1  0.2101801E-008  0.1520696E+03  0.7546771E-02  0.1389517E+00
          2   -1    0    0  503    0  0.00000000000E+00  0.00000000000E+00  0.43818233533E+04  0.43818233533E+04  0.00000000000E+00 0. -1.
         -1   -1    0    0    0  501 -0.00000000000E+00 -0.00000000000E+00 -0.17686945219E+04  0.17686945219E+04  0.00000000000E+00 0.  1.
         24    2    1    2    0    0 -0.22225253342E+02 -0.81227604183E+02 -0.11678000691E+04  0.11735407000E+04  0.79679906908E+02 0.  0.
         25    2    1    2    0    0  0.50362634861E+02 -0.15687064911E+02  0.25828348504E+04  0.25863957438E+04  0.12499839959E+03 0.  0.
         24    2    1    2    0    0  0.17936070243E+03  0.16788690012E+02  0.96760593341E+02  0.21506333800E+03  0.66614602304E+02 0.  0.
        -11    1    5    5    0    0  0.14053924021E+03  0.40852522640E+02  0.75500547634E+02  0.16468314832E+03  0.00000000000E+00 0.  1.
         12    1    5    5    0    0  0.38821462215E+02 -0.24063832628E+02  0.21260045707E+02  0.50380189685E+02  0.00000000000E+00 0. -1.
        -13    1    3    3    0    0 -0.38441945475E+02 -0.93182759305E+01 -0.53531857896E+03  0.53677797498E+03  0.00000000000E+00 0.  1.
         14    1    3    3    0    0  0.16216692132E+02 -0.71909328253E+02 -0.63248149017E+03  0.63676272504E+03  0.00000000000E+00 0. -1.
          5    1    4    4  502    0 -0.16815403599E+02  0.31180192937E+02  0.15120487707E+04  0.15124710038E+04  0.47000000000E+01 0.  1.
         -5    1    4    4    0  502  0.67178038460E+02 -0.46867257848E+02  0.10707860796E+04  0.10739247400E+04  0.47000000000E+01 0.  1.
          1    1    1    2  503    0 -0.24719991558E+02 -0.53856964794E+01  0.16193695295E+04  0.16195671510E+04  0.00000000000E+00 0. -1.
         -2    1    1    2    0  501 -0.18277809239E+03  0.85511675562E+02 -0.51803607270E+03  0.55595094238E+03  0.00000000000E+00 0.  1.
<mgrwt>
<rscale>  0 0.62026936E+02</rscale>
<asrwt>0</asrwt>
<pdfrwt beam="1">  1        2 0.64438579E+00 0.25299876E+02</pdfrwt>
<pdfrwt beam="2">  1       -1 0.26010214E+00 0.15206955E+03</pdfrwt>
<totfact> 0.47148006E-02</totfact>
</mgrwt>
</event>
<event>
13    1  0.2101801E-008  0.6049810E+02  0.7546771E-02  0.1485946E+00
          2   -1    0    0  503    0  0.00000000000E+00  0.00000000000E+00  0.29377008978E+04  0.29377008978E+04  0.00000000000E+00 0. -1.
          2   -1    0    0  502    0 -0.00000000000E+00 -0.00000000000E+00 -0.21902866654E+04  0.21902866654E+04  0.00000000000E+00 0. -1.
         24    2    1    2    0    0 -0.87091965804E+02 -0.11854495633E+04  0.31537149960E+03  0.12324948973E+04  0.81907335003E+02 0.  0.
         25    2    1    2    0    0  0.61744341841E+03 -0.85805470988E+02 -0.18379445359E+03  0.66180446297E+03  0.12492314539E+03 0.  0.
         24    2    1    2    0    0 -0.57290277939E+03  0.13229352405E+04  0.18917649498E+02  0.14428377525E+04  0.55205592773E+02 0.  0.
        -11    1    5    5    0    0 -0.47621335261E+03  0.10805677069E+04  0.35350211245E+02  0.11813785862E+04  0.00000000000E+00 0.  1.
         12    1    5    5    0    0 -0.96689426784E+02  0.24236753354E+03 -0.16432561747E+02  0.26145916632E+03  0.00000000000E+00 0. -1.
        -13    1    3    3    0    0 -0.94872827163E+02 -0.77023899526E+03  0.19709962636E+03  0.80069796169E+03  0.00000000000E+00 0.  1.
         14    1    3    3    0    0  0.77808613596E+01 -0.41521056805E+03  0.11827187324E+03  0.43179693563E+03  0.00000000000E+00 0. -1.
          5    1    4    4  501    0  0.47947720947E+03 -0.10880004288E+03 -0.17379138604E+03  0.52149916547E+03  0.47000000000E+01 0.  1.
         -5    1    4    4    0  501  0.13796620894E+03  0.22994571895E+02 -0.10003067555E+02  0.14030529750E+03  0.47000000000E+01 0.  1.
          1    1    1    2  502    0  0.55639375658E+02 -0.23756962637E+02 -0.59523273990E+03  0.59829937995E+03  0.00000000000E+00 0. -1.
          1    1    1    2  503    0 -0.13088048867E+02 -0.27923243562E+02  0.11921522768E+04  0.11925510704E+04  0.00000000000E+00 0. -1.
<mgrwt>
<rscale>  0 0.43193313E+02</rscale>
<asrwt>0</asrwt>
<pdfrwt beam="1">  1        2 0.43201484E+00 0.30838362E+02</pdfrwt>
<pdfrwt beam="2">  1        2 0.32210098E+00 0.60498101E+02</pdfrwt>
<totfact> 0.46389658E+00</totfact>
</mgrwt>
</event>
<event>
13    1  0.2101801E-008  0.1065120E+03  0.7546771E-02  0.1384526E+00
          2   -1    0    0  503    0  0.00000000000E+00  0.00000000000E+00  0.30377760543E+04  0.30377760543E+04  0.00000000000E+00 0. -1.
         -1   -1    0    0    0  501 -0.00000000000E+00 -0.00000000000E+00 -0.14534818554E+04  0.14534818554E+04  0.00000000000E+00 0.  1.
         24    2    1    2    0    0 -0.39060966880E+03 -0.66932918629E+03  0.27230572012E+02  0.77845119024E+03  0.68317483582E+02 0.  0.
         25    2    1    2    0    0  0.36621701773E+03  0.27185328431E+03  0.31481550654E+01  0.47292097508E+03  0.12500090209E+03 0.  0.
         24    2    1    2    0    0  0.46471502992E+02  0.46305339373E+03  0.10457898981E+04  0.11471572988E+04  0.75599677411E+02 0.  0.
        -11    1    3    3    0    0 -0.35904912344E+03 -0.63883594789E+03  0.15333850969E+02  0.73298210643E+03  0.00000000000E+00 0.  1.
         12    1    3    3    0    0 -0.31560545355E+02 -0.30493238394E+02  0.11896721043E+02  0.45469083809E+02  0.00000000000E+00 0. -1.
        -13    1    5    5    0    0  0.20893301498E+02  0.38711810006E+02  0.13621502331E+03  0.14314212118E+03  0.00000000000E+00 0.  1.
         14    1    5    5    0    0  0.25578201494E+02  0.42434158372E+03  0.90957487481E+03  0.10040151776E+04  0.00000000000E+00 0. -1.
          5    1    4    4  502    0  0.10954482902E+03  0.30813182333E+02  0.35499931348E+02  0.11929734656E+03  0.47000000000E+01 0.  1.
         -5    1    4    4    0  502  0.25667218871E+03  0.24104010198E+03 -0.32351776283E+02  0.35362362852E+03  0.47000000000E+01 0.  1.
          1    1    1    2  503    0  0.16575129558E+02  0.33755954462E+02  0.12965682587E+04  0.12971135065E+04  0.00000000000E+00 0. -1.
         -2    1    1    2    0  501 -0.38653981481E+02 -0.99333446217E+02 -0.78844268492E+03  0.79561493904E+03  0.00000000000E+00 0.  1.
<mgrwt>
<rscale>  0 0.63288824E+02</rscale>
<asrwt>0</asrwt>
<pdfrwt beam="1">  1        2 0.44673177E+00 0.37605842E+02</pdfrwt>
<pdfrwt beam="2">  1       -1 0.21374733E+00 0.10651205E+03</pdfrwt>
<totfact> 0.55352572E-01</totfact>
</mgrwt>
</event>
<event>
13    1  0.2101801E-008  0.1209683E+03  0.7546771E-02  0.1263344E+00
          2   -1    0    0  503    0  0.00000000000E+00  0.00000000000E+00  0.15642871310E+04  0.15642871310E+04  0.00000000000E+00 0. -1.
         -3   -1    0    0    0  501 -0.00000000000E+00 -0.00000000000E+00 -0.24085624738E+04  0.24085624738E+04  0.00000000000E+00 0.  1.
         24    2    1    2    0    0  0.31734397217E+02 -0.12510977736E+03 -0.84197251916E+03  0.85557346669E+03  0.80179208774E+02 0.  0.
         25    2    1    2    0    0  0.45548795947E+02 -0.35751915210E+02  0.12541692601E+03  0.18629991426E+03  0.12500144187E+03 0.  0.
         24    2    1    2    0    0  0.31740257036E+02  0.17745498624E+03 -0.75194591629E+02  0.21132376665E+03  0.80658487977E+02 0.  0.
        -13    1    5    5    0    0  0.32946884699E+02  0.18133035409E+03 -0.57339259885E+02  0.19301291473E+03  0.00000000000E+00 0.  1.
         14    1    5    5    0    0 -0.12066276630E+01 -0.38753678575E+01 -0.17855331744E+02  0.18310851920E+02  0.00000000000E+00 0. -1.
        -13    1    3    3    0    0  0.82169569090E+01 -0.12797963078E+03 -0.71470394147E+03  0.72611846707E+03  0.00000000000E+00 0.  1.
         14    1    3    3    0    0  0.23517440308E+02  0.28698534146E+01 -0.12726857769E+03  0.12945499962E+03  0.00000000000E+00 0. -1.
          5    1    4    4  502    0  0.20497192616E+02  0.13413380512E+01  0.13797456458E+03  0.13957436929E+03  0.47000000000E+01 0. -1.
         -5    1    4    4    0  502  0.25051603330E+02 -0.37093253261E+02 -0.12557638561E+02  0.46725544974E+02  0.47000000000E+01 0. -1.
          1    1    1    2  503    0 -0.91626229330E+02  0.79183791009E+02  0.13290983085E+04  0.13346039683E+04  0.00000000000E+00 0. -1.
         -4    1    1    2    0  501 -0.17397220870E+02 -0.95777084675E+02 -0.13816234665E+04  0.13850484888E+04  0.00000000000E+00 0.  1.
<mgrwt>
<rscale>  0 0.10851534E+03</rscale>
<asrwt>0</asrwt>
<pdfrwt beam="1">  1        2 0.23004223E+00 0.12096834E+03</pdfrwt>
<pdfrwt beam="2">  1       -3 0.35420036E+00 0.97344303E+02</pdfrwt>
<totfact> 0.22502573E-01</totfact>
</mgrwt>
</event>
<event>
13    1  0.2101801E-008  0.1700824E+03  0.7546771E-02  0.1251460E+00
          2   -1    0    0  503    0  0.00000000000E+00  0.00000000000E+00  0.21142958307E+04  0.21142958307E+04  0.00000000000E+00 0. -1.
          2   -1    0    0  502    0 -0.00000000000E+00 -0.00000000000E+00 -0.97119095808E+03  0.97119095808E+03  0.00000000000E+00 0. -1.
         24    2    1    2    0    0 -0.99141243910E+01  0.12150955176E+03 -0.51663133113E+02  0.15523893878E+03  0.81038187051E+02 0.  0.
         25    2    1    2    0    0 -0.58968848150E+02 -0.11152198401E+02  0.44564800903E+03  0.46672140715E+03  0.12500010943E+03 0.  0.
         24    2    1    2    0    0  0.30122327884E+01 -0.31680723190E+02  0.52117575742E+02  0.11766043652E+03  0.10057333073E+03 0.  0.
        -11    1    3    3    0    0 -0.32788302539E+02  0.12860966336E+02 -0.95712892209E+01  0.36497764532E+02  0.00000000000E+00 0.  1.
         12    1    3    3    0    0  0.22874178148E+02  0.10864858542E+03 -0.42091843892E+02  0.11874117425E+03  0.00000000000E+00 0. -1.
        -13    1    5    5    0    0  0.10712958430E+02  0.23492424812E+02  0.56154836731E+02  0.61806368524E+02  0.00000000000E+00 0.  1.
         14    1    5    5    0    0 -0.77007256412E+01 -0.55173148002E+02 -0.40372609890E+01  0.55854068000E+02  0.00000000000E+00 0. -1.
          5    1    4    4  501    0 -0.70397319493E+02 -0.57085690898E+02  0.27658903479E+03  0.29109816706E+03  0.47000000000E+01 0. -1.
         -5    1    4    4    0  501  0.11428471343E+02  0.45933492497E+02  0.16905897424E+03  0.17562324009E+03  0.47000000000E+01 0. -1.
          1    1    1    2  502    0 -0.80565899297E+01  0.77432249341E+02 -0.81767450570E+03  0.82137218066E+03  0.00000000000E+00 0. -1.
          1    1    1    2  503    0  0.73927329682E+02 -0.15610887951E+03  0.15146769266E+04  0.15244938256E+04  0.00000000000E+00 0. -1.
<mgrwt>
<rscale>  0 0.11506938E+03</rscale>
<asrwt>0</asrwt>
<pdfrwt beam="1">  1        2 0.31092586E+00 0.17008244E+03</pdfrwt>
<pdfrwt beam="2">  1        2 0.14282220E+00 0.77850253E+02</pdfrwt>
<totfact> 0.36673450E+01</totfact>
</mgrwt>
</event>
<event>
13    1  0.2830578E-008  0.1114110E+03  0.7546771E-02  0.1385936E+00
         -3   -1    0    0    0  501 -0.00000000000E+00  0.00000000000E+00  0.65017652230E+03  0.65017652230E+03  0.00000000000E+00 0.  1.
          2   -1    0    0  503    0  0.00000000000E+00 -0.00000000000E+00 -0.41183372110E+04  0.41183372110E+04  0.00000000000E+00 0. -1.
         24    2    1    2    0    0  0.72340304945E+02 -0.90962074580E+01 -0.70052697852E+02  0.12950572876E+03  0.80922756977E+02 0.  0.
         25    2    1    2    0    0  0.20326197744E+02  0.11051327016E+03 -0.12603770913E+04  0.12715336863E+04  0.12498466206E+03 0.  0.
         24    2    1    2    0    0  0.60103509430E+01 -0.12689422784E+02 -0.17657625983E+04  0.17676118422E+04  0.79604807378E+02 0.  0.
        -11    1    3    3    0    0  0.10258547245E+02  0.30777064225E+02 -0.35313139081E+02  0.47952927602E+02  0.00000000000E+00 0.  1.
         12    1    3    3    0    0  0.62081757700E+02 -0.39873271682E+02 -0.34739558771E+02  0.81552801162E+02  0.00000000000E+00 0. -1.
        -11    1    5    5    0    0  0.62966275841E+00  0.21965335252E+02 -0.13998556893E+04  0.14000281509E+04  0.00000000000E+00 0.  1.
         12    1    5    5    0    0  0.53806881846E+01 -0.34654758036E+02 -0.36590690896E+03  0.36758369127E+03  0.00000000000E+00 0. -1.
          5    1    4    4  502    0  0.33152344610E+02  0.52173183671E+02 -0.19822616933E+03  0.20769406167E+03  0.47000000000E+01 0. -1.
         -5    1    4    4    0  502 -0.12826146867E+02  0.58340086490E+02 -0.10621509220E+04  0.10638396246E+04  0.47000000000E+01 0. -1.
          1    1    1    2  503    0 -0.59629675488E+00 -0.35539329582E+02 -0.98052154666E+03  0.98116558388E+03  0.00000000000E+00 0. -1.
         -4    1    1    2    0  501 -0.98080556877E+02 -0.53188310337E+02  0.60855324540E+03  0.61869689225E+03  0.00000000000E+00 0.  1.
<mgrwt>
<rscale>  0 0.62928767E+02</rscale>
<asrwt>0</asrwt>
<pdfrwt beam="2">  1        2 0.60563781E+00 0.35544332E+02</pdfrwt>
<pdfrwt beam="1">  1       -3 0.95614198E-01 0.11141100E+03</pdfrwt>
<totfact> 0.47784934E-01</totfact>
</mgrwt>
</event>
<event>
13    1  0.2101801E-008  0.4755584E+02  0.7546771E-02  0.1560368E+00
          2   -1    0    0  503    0  0.00000000000E+00  0.00000000000E+00  0.88000302634E+03  0.88000302634E+03  0.00000000000E+00 0. -1.
          2   -1    0    0  502    0 -0.00000000000E+00 -0.00000000000E+00 -0.11197337757E+04  0.11197337757E+04  0.00000000000E+00 0. -1.
         24    2    1    2    0    0  0.14118784878E+03  0.10230208971E+03 -0.22132572941E+03  0.29708733383E+03  0.94212946151E+02 0.  0.
         25    2    1    2    0    0 -0.10666400981E+03 -0.53828230209E+02  0.31904229151E+03  0.36288581619E+03  0.12499376969E+03 0.  0.
         24    2    1    2    0    0 -0.96764938429E+02 -0.82998636141E+02 -0.22501191845E+02  0.15471968980E+03  0.84732826383E+02 0.  0.
        -11    1    3    3    0    0  0.71860581152E+02  0.16043493060E+02 -0.14509343599E+03  0.16270661314E+03  0.00000000000E+00 0.  1.
         12    1    3    3    0    0  0.69327267624E+02  0.86258596648E+02 -0.76232293414E+02  0.13438072068E+03  0.00000000000E+00 0. -1.
        -13    1    5    5    0    0 -0.87476061010E+02 -0.51955869396E+02 -0.48938540594E+02  0.11290019650E+03  0.00000000000E+00 0.  1.
         14    1    5    5    0    0 -0.92888774189E+01 -0.31042766745E+02  0.26437348749E+02  0.41819493299E+02  0.00000000000E+00 0. -1.
          5    1    4    4  501    0 -0.49813740830E+02 -0.68821626214E+02  0.80405889815E+02  0.11706845061E+03  0.47000000000E+01 0.  1.
         -5    1    4    4    0  501 -0.56850268981E+02  0.14993396005E+02  0.23863640170E+03  0.24581736558E+03  0.47000000000E+01 0.  1.
          1    1    1    2  502    0  0.21982860576E+02  0.93653193904E+01 -0.74850872597E+03  0.74889002411E+03  0.00000000000E+00 0. -1.
          1    1    1    2  503    0  0.40258238888E+02  0.25159457251E+02  0.43356260636E+03  0.43615393811E+03  0.00000000000E+00 0. -1.
<mgrwt>
<rscale>  0 0.33709511E+02</rscale>
<asrwt>0</asrwt>
<pdfrwt beam="1">  1        2 0.12941221E+00 0.47555836E+02</pdfrwt>
<pdfrwt beam="2">  1        2 0.16466673E+00 0.23894672E+02</pdfrwt>
<totfact> 0.15201108E+02</totfact>
</mgrwt>
</event>
<event>
13    1  0.2101801E-008  0.1259634E+03  0.7546771E-02  0.1244548E+00
          2   -1    0    0  503    0  0.00000000000E+00  0.00000000000E+00  0.18175502712E+04  0.18175502712E+04  0.00000000000E+00 0. -1.
          2   -1    0    0  502    0 -0.00000000000E+00 -0.00000000000E+00 -0.19216046068E+04  0.19216046068E+04  0.00000000000E+00 0. -1.
         24    2    1    2    0    0 -0.29755019161E+00 -0.43419641138E+02 -0.85653255608E+03  0.86152974428E+03  0.81854302777E+02 0.  0.
         25    2    1    2    0    0  0.25986501704E+02  0.71076047188E+02 -0.14696439528E+03  0.20724548627E+03  0.12500022138E+03 0.  0.
         24    2    1    2    0    0  0.50904912668E+02 -0.43708412162E+02 -0.29516034677E+03  0.31903457375E+03  0.10080522564E+03 0.  0.
        -11    1    5    5    0    0  0.78773865351E+01  0.32518204006E+02 -0.87586636977E+02  0.93759830350E+02  0.00000000000E+00 0.  1.
         12    1    5    5    0    0  0.43027526133E+02 -0.76226616168E+02 -0.20757370979E+03  0.22527474340E+03  0.00000000000E+00 0. -1.
        -13    1    3    3    0    0 -0.38900355749E+02 -0.26736233982E+02 -0.56666129349E+03  0.56862385231E+03  0.00000000000E+00 0.  1.
         14    1    3    3    0    0  0.38602805557E+02 -0.16683407156E+02 -0.28987126259E+03  0.29290589196E+03  0.00000000000E+00 0. -1.
          5    1    4    4  501    0  0.25579480774E+02 -0.16403407272E+02  0.56599338602E+01  0.31265099681E+02  0.47000000000E+01 0.  1.
         -5    1    4    4    0  501  0.40702093037E+00  0.87479454459E+02 -0.15262432914E+03  0.17598038659E+03  0.47000000000E+01 0.  1.
          1    1    1    2  502    0 -0.20245697562E+03  0.21002044569E+02 -0.55813266189E+03  0.59408920300E+03  0.00000000000E+00 0. -1.
          1    1    1    2  503    0  0.12586311144E+03 -0.49500384562E+01  0.17527356245E+04  0.17572558707E+04  0.00000000000E+00 0. -1.
<mgrwt>
<rscale>  0 0.11912457E+03</rscale>
<asrwt>0</asrwt>
<pdfrwt beam="1">  1        2 0.26728680E+00 0.12596344E+03</pdfrwt>
<pdfrwt beam="2">  1        2 0.28258891E+00 0.11265700E+03</pdfrwt>
<totfact> 0.16885934E+01</totfact>
</mgrwt>
</event>
<event>
13    1  0.2101801E-008  0.6948828E+02  0.7546771E-02  0.1423398E+00
          2   -1    0    0  503    0  0.00000000000E+00  0.00000000000E+00  0.82048255851E+03  0.82048255851E+03  0.00000000000E+00 0. -1.
          2   -1    0    0  502    0 -0.00000000000E+00 -0.00000000000E+00 -0.11034022003E+04  0.11034022003E+04  0.00000000000E+00 0. -1.
         24    2    1    2    0    0  0.27831754109E+01  0.54726379357E+02 -0.59431253806E+03  0.60323643053E+03  0.87658859032E+02 0.  0.
         25    2    1    2    0    0 -0.18539087701E+01 -0.13012114430E+03 -0.31859740184E+03  0.36615603763E+03  0.12502395873E+03 0.  0.
         24    2    1    2    0    0  0.44645502229E+02  0.27340619428E+02  0.21813787367E+03  0.23819365100E+03  0.80070925480E+02 0.  0.
        -11    1    3    3    0    0 -0.19420844321E+02  0.42424134105E+01 -0.28531571972E+02  0.34773810043E+02  0.00000000000E+00 0.  1.
         12    1    3    3    0    0  0.22204019732E+02  0.50483965947E+02 -0.56578096608E+03  0.56846262049E+03  0.00000000000E+00 0. -1.
        -11    1    5    5    0    0  0.62035103368E+02  0.20099622957E+01  0.11635681289E+03  0.13187608542E+03  0.00000000000E+00 0.  1.
         12    1    5    5    0    0 -0.17389601139E+02  0.25330657132E+02  0.10178106078E+03  0.10631756559E+03  0.00000000000E+00 0. -1.
          5    1    4    4  501    0  0.59079391942E+02 -0.74031309350E+02 -0.20097592190E+03  0.22222605720E+03  0.47000000000E+01 0. -1.
         -5    1    4    4    0  501 -0.60933300713E+02 -0.56089834952E+02 -0.11762147994E+03  0.14392998042E+03  0.47000000000E+01 0. -1.
          1    1    1    2  502    0  0.22855366037E+02  0.35765578226E+02 -0.14706815474E+03  0.15307052780E+03  0.00000000000E+00 0. -1.
          1    1    1    2  503    0 -0.68430134907E+02  0.12288567291E+02  0.55892057914E+03  0.56322811190E+03  0.00000000000E+00 0. -1.
<mgrwt>
<rscale>  0 0.54308400E+02</rscale>
<asrwt>0</asrwt>
<pdfrwt beam="1">  1        2 0.12065920E+00 0.69488276E+02</pdfrwt>
<pdfrwt beam="2">  1        2 0.16226503E+00 0.42444603E+02</pdfrwt>
<totfact> 0.16053398E+02</totfact>
</mgrwt>
</event>
<event>
13    1  0.2101801E-008  0.8046364E+02  0.7546771E-02  0.1346288E+00
          2   -1    0    0  503    0  0.00000000000E+00  0.00000000000E+00  0.53091477129E+03  0.53091477129E+03  0.00000000000E+00 0. -1.
          2   -1    0    0  502    0 -0.00000000000E+00 -0.00000000000E+00 -0.13770478234E+04  0.13770478234E+04  0.00000000000E+00 0. -1.
         24    2    1    2    0    0  0.20948143077E+03  0.10335739383E+03 -0.10258315535E+03  0.26760507122E+03  0.80770970552E+02 0.  0.
         25    2    1    2    0    0 -0.16297810757E+03 -0.59724580767E+02 -0.51493695647E+03  0.55759615978E+03  0.12499807666E+03 0.  0.
         24    2    1    2    0    0 -0.55353441568E+02  0.58008163863E+02  0.17828597908E+02  0.12513591241E+03  0.94404380745E+02 0.  0.
        -11    1    5    5    0    0 -0.33468783536E+01 -0.19470373301E+02 -0.16466787687E+02  0.25718711630E+02  0.00000000000E+00 0.  1.
         12    1    5    5    0    0 -0.52006563215E+02  0.77478537163E+02  0.34295385594E+02  0.99417200783E+02  0.00000000000E+00 0. -1.
        -13    1    3    3    0    0  0.71363489377E+02  0.30721903461E+02 -0.77150687418E+02  0.10949343148E+03  0.00000000000E+00 0.  1.
         14    1    3    3    0    0  0.13811794139E+03  0.72635490370E+02 -0.25432467933E+02  0.15811163974E+03  0.00000000000E+00 0. -1.
          5    1    4    4  501    0 -0.93372147096E+02 -0.88546841302E+02 -0.39889520100E+03  0.41916389675E+03  0.47000000000E+01 0.  1.
         -5    1    4    4    0  501 -0.69605960470E+02  0.28822260535E+02 -0.11604175547E+03  0.13843226304E+03  0.47000000000E+01 0.  1.
          1    1    1    2  502    0 -0.48521436573E+02 -0.64269754240E+02 -0.59600435099E+03  0.60142008407E+03  0.00000000000E+00 0. -1.
          1    1    1    2  503    0  0.57371554938E+02 -0.37371222686E+02  0.34956281275E+03  0.35620536726E+03  0.00000000000E+00 0. -1.
<mgrwt>
<rscale>  0 0.74224819E+02</rscale>
<asrwt>0</asrwt>
<pdfrwt beam="1">  1        2 0.78075702E-01 0.68469728E+02</pdfrwt>
<pdfrwt beam="2">  1        2 0.20250703E+00 0.80463643E+02</pdfrwt>
<totfact> 0.18211186E+02</totfact>
</mgrwt>
</event>
<event>
13    1  0.2101801E-008  0.1067506E+03  0.7546771E-02  0.1419911E+00
          2   -1    0    0  503    0  0.00000000000E+00  0.00000000000E+00  0.21208077887E+04  0.21208077887E+04  0.00000000000E+00 0. -1.
          2   -1    0    0  502    0 -0.00000000000E+00 -0.00000000000E+00 -0.21282363486E+04  0.21282363486E+04  0.00000000000E+00 0. -1.
         24    2    1    2    0    0 -0.14077994909E+03  0.15799007240E+03 -0.16406957881E+04  0.16560846710E+04  0.77161592752E+02 0.  0.
         25    2    1    2    0    0  0.21381419153E+03 -0.11009881073E+03  0.11014672833E+03  0.29256353587E+03  0.12499145626E+03 0.  0.
         24    2    1    2    0    0  0.42664586262E+02 -0.60185519040E+02  0.50392712571E+02  0.12267046430E+03  0.84059822197E+02 0.  0.
        -11    1    3    3    0    0 -0.11301518235E+02  0.32525688405E+01 -0.30591135550E+03  0.30613732366E+03  0.00000000000E+00 0.  1.
         12    1    3    3    0    0 -0.12947843085E+03  0.15473750356E+03 -0.13347844326E+04  0.13499473474E+04  0.00000000000E+00 0. -1.
        -11    1    5    5    0    0  0.46352390218E+02 -0.78005500106E+02  0.30540744034E+02  0.95739955984E+02  0.00000000000E+00 0.  1.
         12    1    5    5    0    0 -0.36878039566E+01  0.17819981066E+02  0.19851968537E+02  0.26930508313E+02  0.00000000000E+00 0. -1.
          5    1    4    4  501    0  0.13300175457E+02 -0.11322581419E+02 -0.25346105950E+02  0.31138571001E+02  0.47000000000E+01 0.  1.
         -5    1    4    4    0  501  0.20051401607E+03 -0.98776229310E+02  0.13549283428E+03  0.26142496487E+03  0.47000000000E+01 0.  1.
          1    1    1    2  502    0 -0.24793621932E+01  0.28269590598E+02 -0.35013349291E+03  0.35128162469E+03  0.00000000000E+00 0. -1.
          1    1    1    2  503    0 -0.11321946651E+03 -0.15975333227E+02  0.18228612803E+04  0.18264438414E+04  0.00000000000E+00 0. -1.
<mgrwt>
<rscale>  0 0.55039792E+02</rscale>
<asrwt>0</asrwt>
<pdfrwt beam="1">  1        2 0.31188350E+00 0.10675055E+03</pdfrwt>
<pdfrwt beam="2">  1        2 0.31297593E+00 0.28378108E+02</pdfrwt>
<totfact> 0.11445064E+01</totfact>
</mgrwt>
</event>
<event>
13    1  0.2101801E-008  0.4580043E+02  0.7546771E-02  0.1545866E+00
          2   -1    0    0  502    0  0.00000000000E+00  0.00000000000E+00  0.17714692187E+04  0.17714692187E+04  0.00000000000E+00 0. -1.
          4   -1    0    0  503    0 -0.00000000000E+00 -0.00000000000E+00 -0.75475790713E+03  0.75475790713E+03  0.00000000000E+00 0. -1.
         24    2    1    2    0    0 -0.63415385615E+03  0.21172180622E+03 -0.40319709386E+03  0.78482775837E+03  0.80059211279E+02 0.  0.
         25    2    1    2    0    0  0.30716210858E+03 -0.24493811853E+03  0.49443845748E+03  0.64376993821E+03  0.12500840871E+03 0.  0.
         24    2    1    2    0    0  0.25753289221E+03  0.54799659648E+02  0.43912429817E+03  0.52366223429E+03  0.10984440410E+03 0.  0.
        -11    1    3    3    0    0 -0.20460420872E+03  0.10237893644E+03 -0.11438199731E+03  0.25578813530E+03  0.00000000000E+00 0.  1.
         12    1    3    3    0    0 -0.42954964743E+03  0.10934286977E+03 -0.28881509655E+03  0.52903962307E+03  0.00000000000E+00 0. -1.
        -13    1    5    5    0    0  0.35798020554E+02 -0.24706715450E+02  0.34715573877E+02  0.55651515105E+02  0.00000000000E+00 0.  1.
         14    1    5    5    0    0  0.22173487166E+03  0.79506375098E+02  0.40440872429E+03  0.46801071919E+03  0.00000000000E+00 0. -1.
          5    1    4    4  501    0  0.62279453651E+02 -0.31533965668E+02  0.17367946048E+03  0.18724253345E+03  0.47000000000E+01 0. -1.
         -5    1    4    4    0  501  0.24488265493E+03 -0.21340415286E+03  0.32075899700E+03  0.45652740477E+03  0.47000000000E+01 0. -1.
          1    1    1    2  502    0  0.25684552845E+02 -0.90193176656E+01  0.51786631867E+03  0.51858130352E+03  0.00000000000E+00 0. -1.
          3    1    1    2  503    0  0.43774302514E+02 -0.12564029668E+02 -0.31520668903E+02  0.55385891436E+02  0.00000000000E+00 0. -1.
<mgrwt>
<rscale>  0 0.35309848E+02</rscale>
<asrwt>0</asrwt>
<pdfrwt beam="1">  1        2 0.26051018E+00 0.27222130E+02</pdfrwt>
<pdfrwt beam="2">  1        4 0.11099381E+00 0.45800433E+02</pdfrwt>
<totfact> 0.44551794E+00</totfact>
</mgrwt>
</event>
<event>
13    1  0.2101801E-008  0.9453867E+02  0.7546771E-02  0.1471509E+00
          2   -1    0    0  503    0  0.00000000000E+00  0.00000000000E+00  0.16623108354E+04  0.16623108354E+04  0.00000000000E+00 0. -1.
         -1   -1    0    0    0  501 -0.00000000000E+00 -0.00000000000E+00 -0.50527372154E+03  0.50527372154E+03  0.00000000000E+00 0.  1.
         24    2    1    2    0    0 -0.69897084994E+02  0.17217936873E+03 -0.44407573110E+01  0.20534046126E+03  0.87256215813E+02 0.  0.
         25    2    1    2    0    0  0.27141288223E+03 -0.10025100099E+03  0.10349391209E+04  0.10818682965E+04  0.12499924460E+03 0.  0.
         24    2    1    2    0    0 -0.13151805882E+03 -0.43798239827E+02  0.79229808764E+01  0.16027142930E+03  0.80055429654E+02 0.  0.
        -11    1    3    3    0    0 -0.72442991286E+02  0.66280867489E+02 -0.13093893964E+02  0.99058520283E+02  0.00000000000E+00 0.  1.
         12    1    3    3    0    0  0.25459062923E+01  0.10589850124E+03  0.86531366528E+01  0.10628194097E+03  0.00000000000E+00 0. -1.
        -13    1    5    5    0    0 -0.34933617404E+01 -0.30126458729E+02  0.85745819183E+01  0.31517146871E+02  0.00000000000E+00 0.  1.
         14    1    5    5    0    0 -0.12802469708E+03 -0.13671781098E+02 -0.65160104184E+00  0.12875428243E+03  0.00000000000E+00 0. -1.
          5    1    4    4  502    0  0.22628968730E+03 -0.11909085965E+03  0.74205689141E+03  0.78489500923E+03  0.47000000000E+01 0.  1.
         -5    1    4    4    0  502  0.45123194933E+02  0.18839858662E+02  0.29288222952E+03  0.29697328729E+03  0.47000000000E+01 0.  1.
          1    1    1    2  503    0  0.12824809675E+02  0.17698986838E+02  0.41161484041E+03  0.41219474368E+03  0.00000000000E+00 0. -1.
         -2    1    1    2    0  501 -0.82822548094E+02 -0.45829114749E+02 -0.29299907106E+03  0.30790962615E+03  0.00000000000E+00 0.  1.
<mgrwt>
<rscale>  0 0.45456956E+02</rscale>
<asrwt>0</asrwt>
<pdfrwt beam="1">  1        2 0.24445747E+00 0.21857033E+02</pdfrwt>
<pdfrwt beam="2">  1       -1 0.74304960E-01 0.94538673E+02</pdfrwt>
<totfact> 0.34650966E+01</totfact>
</mgrwt>
</event>
<event>
13    1  0.2101801E-008  0.1088327E+03  0.7546771E-02  0.1265384E+00
          2   -1    0    0  502    0  0.00000000000E+00  0.00000000000E+00  0.20440865507E+04  0.20440865507E+04  0.00000000000E+00 0. -1.
          4   -1    0    0  503    0 -0.00000000000E+00 -0.00000000000E+00 -0.15217296802E+04  0.15217296802E+04  0.00000000000E+00 0. -1.
         24    2    1    2    0    0 -0.38774050581E+02 -0.60466293966E+02 -0.55511028923E+03  0.56495377694E+03  0.76588100631E+02 0.  0.
         25    2    1    2    0    0  0.63635513157E+01  0.18338216148E+02  0.85596033278E+02  0.15273355390E+03  0.12499629041E+03 0.  0.
         24    2    1    2    0    0  0.22185336464E+02 -0.46845255826E+02 -0.14138851181E+03  0.16986535222E+03  0.78592998852E+02 0.  0.
        -13    1    5    5    0    0 -0.41365712271E+01  0.20120294903E+02 -0.46038035743E+02  0.50412679195E+02  0.00000000000E+00 0.  1.
         14    1    5    5    0    0  0.26321907691E+02 -0.66965550728E+02 -0.95350476062E+02  0.11945267303E+03  0.00000000000E+00 0. -1.
        -13    1    3    3    0    0 -0.26640325992E+02  0.11333775448E+02 -0.10197914947E+03  0.10600900132E+03  0.00000000000E+00 0.  1.
         14    1    3    3    0    0 -0.12133724589E+02 -0.71800069414E+02 -0.45313113976E+03  0.45894477562E+03  0.00000000000E+00 0. -1.
          5    1    4    4  501    0 -0.72814937902E+01  0.28758063520E+02 -0.26000634124E+02  0.39726179580E+02  0.47000000000E+01 0.  1.
         -5    1    4    4    0  501  0.13645045106E+02 -0.10419847372E+02  0.11159666740E+03  0.11300737432E+03  0.47000000000E+01 0.  1.
          1    1    1    2  502    0 -0.10606353659E+03  0.24446309513E+01  0.18974673001E+04  0.19004308998E+04  0.00000000000E+00 0. -1.
          3    1    1    2  503    0  0.11628869939E+03  0.86528702693E+02 -0.76420766178E+03  0.77783264802E+03  0.00000000000E+00 0. -1.
<mgrwt>
<rscale>  0 0.10744070E+03</rscale>
<asrwt>0</asrwt>
<pdfrwt beam="1">  1        2 0.30060097E+00 0.10606649E+03</pdfrwt>
<pdfrwt beam="2">  1        4 0.22378378E+00 0.10883271E+03</pdfrwt>
<totfact> 0.48187743E-01</totfact>
</mgrwt>
</event>
<event>
13    1  0.2101801E-008  0.1047923E+03  0.7546771E-02  0.1330178E+00
          2   -1    0    0  502    0  0.00000000000E+00  0.00000000000E+00  0.27261196719E+04  0.27261196719E+04  0.00000000000E+00 0. -1.
          2   -1    0    0  503    0 -0.00000000000E+00 -0.00000000000E+00 -0.18896919792E+04  0.18896919792E+04  0.00000000000E+00 0. -1.
         24    2    1    2    0    0  0.13142309210E+03 -0.10549351098E+03 -0.51995629184E+03  0.55234344678E+03  0.79547644717E+02 0.  0.
         25    2    1    2    0    0 -0.27623430326E+02  0.12260090271E+03  0.97679036329E+03  0.99274307983E+03  0.12500149393E+03 0.  0.
         24    2    1    2    0    0 -0.16741847605E+03 -0.91229875410E+02 -0.72733224843E+02  0.21935755197E+03  0.80472214569E+02 0.  0.
        -11    1    3    3    0    0  0.10065933264E+03 -0.10928999362E+03 -0.47530639528E+03  0.49798872813E+03  0.00000000000E+00 0.  1.
         12    1    3    3    0    0  0.30763759463E+02  0.37964826319E+01 -0.44649896563E+02  0.54354718652E+02  0.00000000000E+00 0. -1.
        -11    1    5    5    0    0 -0.68346541488E+02  0.46084541032E+01 -0.16319577534E+02  0.70418862483E+02  0.00000000000E+00 0.  1.
         12    1    5    5    0    0 -0.99071934564E+02 -0.95838329513E+02 -0.56413647309E+02  0.14893868948E+03  0.00000000000E+00 0. -1.
          5    1    4    4  501    0  0.26973432424E+02  0.12116162464E+02  0.47783163895E+03  0.47876876739E+03  0.47000000000E+01 0.  1.
         -5    1    4    4    0  501 -0.54596862750E+02  0.11048474024E+03  0.49895872434E+03  0.51397431244E+03  0.47000000000E+01 0.  1.
          1    1    1    2  502    0  0.11188711451E+02  0.10425219333E+03  0.16494194104E+04  0.16527486495E+04  0.00000000000E+00 0. -1.
          1    1    1    2  503    0  0.52430102824E+02 -0.30129709643E+02 -0.11970925644E+04  0.11986189231E+04  0.00000000000E+00 0. -1.
<mgrwt>
<rscale>  0 0.79604490E+02</rscale>
<asrwt>0</asrwt>
<pdfrwt beam="1">  1        2 0.40089995E+00 0.10479235E+03</pdfrwt>
<pdfrwt beam="2">  1        2 0.27789588E+00 0.60470779E+02</pdfrwt>
<totfact> 0.67766589E+00</totfact>
</mgrwt>
</event>
<event>
13    1  0.2101801E-008  0.1052409E+03  0.7546771E-02  0.1293779E+00
          2   -1    0    0  502    0  0.00000000000E+00  0.00000000000E+00  0.14415736566E+04  0.14415736566E+04  0.00000000000E+00 0. -1.
          2   -1    0    0  503    0 -0.00000000000E+00 -0.00000000000E+00 -0.14217053836E+04  0.14217053836E+04  0.00000000000E+00 0. -1.
         24    2    1    2    0    0  0.91909321213E+02  0.42850009087E+02 -0.11392712516E+03  0.17197829381E+03  0.79458776035E+02 0.  0.
         25    2    1    2    0    0  0.11957069303E+03  0.18617283657E+03 -0.10827077519E+03  0.27623720026E+03  0.12500781712E+03 0.  0.
         24    2    1    2    0    0 -0.38507043405E+03 -0.16282998932E+03  0.49551441307E+03  0.65561216554E+03  0.97467602065E+02 0.  0.
        -11    1    3    3    0    0  0.27904570784E+02 -0.23138437993E+02 -0.40249568688E+02  0.54167150220E+02  0.00000000000E+00 0.  1.
         12    1    3    3    0    0  0.64004750429E+02  0.65988447080E+02 -0.73677556471E+02  0.11781114359E+03  0.00000000000E+00 0. -1.
        -11    1    5    5    0    0 -0.29215407569E+03 -0.14707750496E+03  0.32684330293E+03  0.46239846570E+03  0.00000000000E+00 0.  1.
         12    1    5    5    0    0 -0.92916358354E+02 -0.15752484358E+02  0.16867111014E+03  0.19321369985E+03  0.00000000000E+00 0. -1.
          5    1    4    4  501    0 -0.25439128080E+02  0.17451936631E+02 -0.18578762851E+02  0.36317760927E+02  0.47000000000E+01 0. -1.
         -5    1    4    4    0  501  0.14500982111E+03  0.16872089994E+03 -0.89692012335E+02  0.23991943933E+03  0.47000000000E+01 0. -1.
          1    1    1    2  502    0  0.10204567056E+03 -0.22755779099E+02  0.74761749682E+03  0.75489275127E+03  0.00000000000E+00 0. -1.
          1    1    1    2  503    0  0.71544749248E+02 -0.43437077240E+02 -0.10010657366E+04  0.10045586294E+04  0.00000000000E+00 0. -1.
<mgrwt>
<rscale>  0 0.93853595E+02</rscale>
<asrwt>0</asrwt>
<pdfrwt beam="1">  1        2 0.21199613E+00 0.10524086E+03</pdfrwt>
<pdfrwt beam="2">  1        2 0.20907432E+00 0.83698452E+02</pdfrwt>
<totfact> 0.47165133E+01</totfact>
</mgrwt>
</event>
<event>
13    1  0.2101801E-008  0.1437108E+03  0.7546771E-02  0.1265387E+00
          2   -1    0    0  503    0  0.00000000000E+00  0.00000000000E+00  0.13153295174E+04  0.13153295174E+04  0.00000000000E+00 0. -1.
          2   -1    0    0  502    0 -0.00000000000E+00 -0.00000000000E+00 -0.18114032457E+04  0.18114032457E+04  0.00000000000E+00 0. -1.
         24    2    1    2    0    0  0.44581050500E+02  0.14862574138E+03 -0.10218176106E+04  0.10355084385E+04  0.63948539487E+02 0.  0.
         25    2    1    2    0    0 -0.52261232651E+02 -0.73913782704E+02  0.33877595347E+03  0.37227389236E+03  0.12499688227E+03 0.  0.
         24    2    1    2    0    0  0.11244945717E+03 -0.42902829449E+02  0.10947179587E+03  0.18152482473E+03  0.80508724433E+02 0.  0.
        -11    1    5    5    0    0  0.14712027393E+02  0.20699815334E+02  0.71382524287E+01  0.26379551789E+02  0.00000000000E+00 0.  1.
         12    1    5    5    0    0  0.97737429776E+02 -0.63602644783E+02  0.10233354344E+03  0.15514527294E+03  0.00000000000E+00 0. -1.
        -11    1    3    3    0    0  0.35775352651E+02  0.59289533639E+02 -0.28738617547E+03  0.29561112717E+03  0.00000000000E+00 0.  1.
         12    1    3    3    0    0  0.88056978492E+01  0.89336207739E+02 -0.73443143515E+03  0.73989731130E+03  0.00000000000E+00 0. -1.
          5    1    4    4  501    0 -0.23312435939E+02  0.33134107805E+02  0.63568795110E+02  0.75527614031E+02  0.47000000000E+01 0.  1.
         -5    1    4    4    0  501 -0.28948796712E+02 -0.10704789051E+03  0.27520715836E+03  0.29674627833E+03  0.47000000000E+01 0.  1.
          1    1    1    2  502    0  0.60780178977E+02  0.52511816912E+02 -0.71700566698E+03  0.72149071204E+03  0.00000000000E+00 0. -1.
          1    1    1    2  503    0 -0.16554945400E+03 -0.84320946137E+02  0.79450179997E+03  0.81593489559E+03  0.00000000000E+00 0. -1.
<mgrwt>
<rscale>  0 0.10743940E+03</rscale>
<asrwt>0</asrwt>
<pdfrwt beam="1">  1        2 0.19343081E+00 0.14371078E+03</pdfrwt>
<pdfrwt beam="2">  1        2 0.26638283E+00 0.80322606E+02</pdfrwt>
<totfact> 0.34789518E+01</totfact>
</mgrwt>
</event>
<event>
13    1  0.2101801E-008  0.1206812E+03  0.7546771E-02  0.1306999E+00
          2   -1    0    0  503    0  0.00000000000E+00  0.00000000000E+00  0.96822730842E+03  0.96822730842E+03  0.00000000000E+00 0. -1.
         -1   -1    0    0    0  501 -0.00000000000E+00 -0.00000000000E+00 -0.30617286677E+04  0.30617286677E+04  0.00000000000E+00 0.  1.
         24    2    1    2    0    0 -0.56109486101E+02 -0.94566958985E+02 -0.16374997864E+04  0.16434598069E+04  0.86390984235E+02 0.  0.
         25    2    1    2    0    0  0.11875821335E+03  0.12121834773E+03  0.44623670124E+03  0.49350913425E+03  0.12500668377E+03 0.  0.
         24    2    1    2    0    0 -0.54747876160E+01 -0.35194055535E+02 -0.15496012183E+03  0.17847579350E+03  0.81070183575E+02 0.  0.
        -11    1    3    3    0    0 -0.51324529992E+02 -0.62016317200E+02 -0.14968583927E+04  0.14990214404E+04  0.00000000000E+00 0.  1.
         12    1    3    3    0    0 -0.47849561082E+01 -0.32550641785E+02 -0.14064139371E+03  0.14443836648E+03  0.00000000000E+00 0. -1.
        -11    1    5    5    0    0 -0.34524999520E+02  0.41576080461E+01 -0.94577149812E+02  0.10076754717E+03  0.00000000000E+00 0.  1.
         12    1    5    5    0    0  0.29050211904E+02 -0.39351663581E+02 -0.60382972015E+02  0.77708246330E+02  0.00000000000E+00 0. -1.
          5    1    4    4  502    0 -0.42324227253E+01 -0.20401967363E+02  0.28926191201E+02  0.35957867176E+02  0.47000000000E+01 0. -1.
         -5    1    4    4    0  502  0.12299063607E+03  0.14162031510E+03  0.41731051004E+03  0.45755126707E+03  0.47000000000E+01 0. -1.
          1    1    1    2  503    0 -0.12092654543E+03 -0.20146679212E+01  0.47518838499E+03  0.49033793399E+03  0.00000000000E+00 0. -1.
         -2    1    1    2    0  501  0.63752605801E+02  0.10557334709E+02 -0.12224665372E+04  0.12241733075E+04  0.00000000000E+00 0.  1.
<mgrwt>
<rscale>  0 0.88309231E+02</rscale>
<asrwt>0</asrwt>
<pdfrwt beam="1">  1        2 0.14238637E+00 0.12068121E+03</pdfrwt>
<pdfrwt beam="2">  1       -1 0.45025421E+00 0.64620833E+02</pdfrwt>
<totfact> 0.17980649E-01</totfact>
</mgrwt>
</event>
<event>
13    1  0.2101801E-008  0.2192319E+03  0.7546771E-02  0.1260343E+00
          2   -1    0    0  502    0  0.00000000000E+00  0.00000000000E+00  0.71909252767E+03  0.71909252767E+03  0.00000000000E+00 0. -1.
          2   -1    0    0  503    0 -0.00000000000E+00 -0.00000000000E+00 -0.11083984102E+04  0.11083984102E+04  0.00000000000E+00 0. -1.
         24    2    1    2    0    0  0.45384877336E+01 -0.41547220206E+02 -0.61321032471E+02  0.10583968284E+03  0.75465224196E+02 0.  0.
         25    2    1    2    0    0 -0.49971151090E+02  0.19682149032E+03  0.59718474242E+02  0.24581943517E+03  0.12500033419E+03 0.  0.
         24    2    1    2    0    0 -0.12473221783E+03  0.53660142558E+01  0.96969907830E+02  0.17645247332E+03  0.78392550922E+02 0.  0.
        -11    1    5    5    0    0 -0.12855209142E+03  0.15537844559E+02  0.10165181493E+03  0.16462125106E+03  0.00000000000E+00 0.  1.
         12    1    5    5    0    0  0.38198735858E+01 -0.10171830303E+02 -0.46819071029E+01  0.11831222255E+02  0.00000000000E+00 0. -1.
        -13    1    3    3    0    0 -0.25677853192E+02 -0.29498556954E+02 -0.32066366962E+01  0.39240279381E+02  0.00000000000E+00 0.  1.
         14    1    3    3    0    0  0.30216340926E+02 -0.12048663252E+02 -0.58114395775E+02  0.66599403461E+02  0.00000000000E+00 0. -1.
          5    1    4    4  501    0 -0.56030913037E+02  0.97140863627E+02 -0.24751369535E+02  0.11493707363E+03  0.47000000000E+01 0. -1.
         -5    1    4    4    0  501  0.60597619470E+01  0.99680626691E+02  0.84469843777E+02  0.13088236153E+03  0.47000000000E+01 0. -1.
          1    1    1    2  502    0  0.12388184134E+03 -0.19093394217E+03  0.37460205712E+03  0.43832542943E+03  0.00000000000E+00 0. -1.
          1    1    1    2  503    0  0.46283039849E+02  0.30293657803E+02 -0.85927528920E+03  0.86105391707E+03  0.00000000000E+00 0. -1.
<mgrwt>
<rscale>  0 0.11012250E+03</rscale>
<asrwt>0</asrwt>
<pdfrwt beam="1">  1        2 0.10574890E+00 0.21923193E+03</pdfrwt>
<pdfrwt beam="2">  1        2 0.16299976E+00 0.55315689E+02</pdfrwt>
<totfact> 0.17735051E+02</totfact>
</mgrwt>
</event>
<event>
13    1  0.2101801E-008  0.3677779E+02  0.7546771E-02  0.1560398E+00
          2   -1    0    0  502    0  0.00000000000E+00  0.00000000000E+00  0.11054196424E+04  0.11054196424E+04  0.00000000000E+00 0. -1.
          2   -1    0    0  503    0 -0.00000000000E+00 -0.00000000000E+00 -0.16732510416E+04  0.16732510416E+04  0.00000000000E+00 0. -1.
         24    2    1    2    0    0  0.28387101814E+03 -0.64127908969E+03 -0.21173326547E+03  0.73536283645E+03  0.64077294810E+02 0.  0.
         25    2    1    2    0    0 -0.33380173695E+03 -0.17918091171E+03  0.14997714637E+03  0.42620006224E+03  0.12499579958E+03 0.  0.
         24    2    1    2    0    0  0.54756198821E+02  0.79773779889E+03 -0.56605354588E+02  0.80558392031E+03  0.79858934439E+02 0.  0.
        -11    1    5    5    0    0  0.48683054191E+02  0.65787105301E+03 -0.76842208293E+02  0.66413032391E+03  0.00000000000E+00 0.  1.
         12    1    5    5    0    0  0.60731446298E+01  0.13986674588E+03  0.20236853705E+02  0.14145359641E+03  0.00000000000E+00 0. -1.
        -11    1    3    3    0    0  0.86069141809E+02 -0.14213191080E+03 -0.68075514358E+02  0.17956517729E+03  0.00000000000E+00 0.  1.
         12    1    3    3    0    0  0.19780187633E+03 -0.49914717889E+03 -0.14365775111E+03  0.55579765916E+03  0.00000000000E+00 0. -1.
          5    1    4    4  501    0 -0.82623496084E+01 -0.44521943756E+02  0.74036603259E+01  0.46123465645E+02  0.47000000000E+01 0. -1.
         -5    1    4    4    0  501 -0.32553938734E+03 -0.13465896795E+03  0.14257348604E+03  0.38007659660E+03  0.47000000000E+01 0. -1.
          1    1    1    2  502    0  0.25869235364E+02  0.26202386368E+02  0.17877117526E+03  0.18252373953E+03  0.00000000000E+00 0. -1.
          1    1    1    2  503    0 -0.30694715379E+02 -0.34801838574E+01 -0.62824110071E+03  0.62900012548E+03  0.00000000000E+00 0. -1.
<mgrwt>
<rscale>  0 0.33706327E+02</rscale>
<asrwt>0</asrwt>
<pdfrwt beam="1">  1        2 0.16256171E+00 0.36777785E+02</pdfrwt>
<pdfrwt beam="2">  1        2 0.24606633E+00 0.30891378E+02</pdfrwt>
<totfact> 0.61993256E+01</totfact>
</mgrwt>
</event>
<event>
13    1  0.2101801E-008  0.1467332E+03  0.7546771E-02  0.1282673E+00
          2   -1    0    0  502    0  0.00000000000E+00  0.00000000000E+00  0.22608522156E+04  0.22608522156E+04  0.00000000000E+00 0. -1.
          2   -1    0    0  503    0 -0.00000000000E+00 -0.00000000000E+00 -0.17791042694E+04  0.17791042694E+04  0.00000000000E+00 0. -1.
         24    2    1    2    0    0 -0.43114996595E+02  0.61656325991E+02 -0.27130730231E+03  0.29292983812E+03  0.80869229676E+02 0.  0.
         25    2    1    2    0    0  0.67822848034E+02  0.22698449796E+03  0.11141196857E+04  0.11458664257E+04  0.12500116203E+03 0.  0.
         24    2    1    2    0    0 -0.12193971558E+03 -0.49470739057E+02  0.21349539701E+02  0.15614734627E+03  0.81299093752E+02 0.  0.
        -11    1    5    5    0    0 -0.99609042613E+02 -0.56269985767E+02  0.44982640531E+02  0.12292969787E+03  0.00000000000E+00 0.  1.
         12    1    5    5    0    0 -0.22330672966E+02  0.67992467092E+01 -0.23633100830E+02  0.33217648408E+02  0.00000000000E+00 0. -1.
        -13    1    3    3    0    0 -0.75048175396E+01 -0.19933327079E+02 -0.58260794248E+02  0.62032088158E+02  0.00000000000E+00 0.  1.
         14    1    3    3    0    0 -0.35610179056E+02  0.81589653071E+02 -0.21304650806E+03  0.23089774996E+03  0.00000000000E+00 0. -1.
          5    1    4    4  501    0 -0.25201116670E+02  0.29025755763E+02  0.31388417147E+03  0.31626405720E+03  0.47000000000E+01 0. -1.
         -5    1    4    4    0  501  0.93023964703E+02  0.19795874220E+03  0.80023551423E+03  0.82960236852E+03  0.47000000000E+01 0. -1.
          1    1    1    2  502    0 -0.61692633058E+02 -0.25172492252E+02  0.10176354753E+04  0.10198144909E+04  0.00000000000E+00 0. -1.
          1    1    1    2  503    0  0.15892449720E+03 -0.21399759264E+03 -0.14000494521E+04  0.14251983840E+04  0.00000000000E+00 0. -1.
<mgrwt>
<rscale>  0 0.98878291E+02</rscale>
<asrwt>0</asrwt>
<pdfrwt beam="1">  1        2 0.33247827E+00 0.66630589E+02</pdfrwt>
<pdfrwt beam="2">  1        2 0.26163298E+00 0.14673315E+03</pdfrwt>
<totfact> 0.12670698E+01</totfact>
</mgrwt>
</event>
<event>
13    1  0.2101801E-008  0.2135675E+03  0.7546771E-02  0.1276602E+00
          2   -1    0    0  503    0  0.00000000000E+00  0.00000000000E+00  0.75013667694E+03  0.75013667694E+03  0.00000000000E+00 0. -1.
          2   -1    0    0  502    0 -0.00000000000E+00 -0.00000000000E+00 -0.36839736882E+04  0.36839736882E+04  0.00000000000E+00 0. -1.
         24    2    1    2    0    0 -0.25802739008E+03  0.18713387726E+03 -0.18488059245E+04  0.18776437781E+04  0.76587133169E+02 0.  0.
         25    2    1    2    0    0 -0.60766365799E+02  0.17214713577E+03  0.31348530810E+03  0.38369506017E+03  0.12498669224E+03 0.  0.
         24    2    1    2    0    0  0.24498850224E+03 -0.16802943428E+03 -0.87208575704E+03  0.92484642943E+03  0.80957355253E+02 0.  0.
        -11    1    3    3    0    0 -0.40055546758E+01  0.23255821274E+02 -0.19653691159E+03  0.19794856733E+03  0.00000000000E+00 0.  1.
         12    1    3    3    0    0 -0.25402183540E+03  0.16387805598E+03 -0.16522690129E+04  0.16796952108E+04  0.00000000000E+00 0. -1.
        -13    1    5    5    0    0  0.48019713394E+02 -0.28278149103E+02 -0.85826116264E+02  0.10233117230E+03  0.00000000000E+00 0.  1.
         14    1    5    5    0    0  0.19696878885E+03 -0.13975128517E+03 -0.78625964078E+03  0.82251525713E+03  0.00000000000E+00 0. -1.
          5    1    4    4  501    0 -0.83802007952E+02  0.12165138804E+03  0.28520719558E+03  0.32122744460E+03  0.47000000000E+01 0.  1.
         -5    1    4    4    0  501  0.23035642153E+02  0.50495747727E+02  0.28278112521E+02  0.62467615575E+02  0.47000000000E+01 0.  1.
          1    1    1    2  502    0  0.12019332574E+03 -0.17708584386E+03 -0.87255455339E+03  0.89841932319E+03  0.00000000000E+00 0. -1.
          1    1    1    2  503    0 -0.46388072110E+02 -0.14165734894E+02  0.34612391558E+03  0.34950577422E+03  0.00000000000E+00 0. -1.
<mgrwt>
<rscale>  0 0.10177732E+03</rscale>
<asrwt>0</asrwt>
<pdfrwt beam="1">  1        2 0.11031421E+00 0.48502797E+02</pdfrwt>
<pdfrwt beam="2">  1        2 0.54176085E+00 0.21356753E+03</pdfrwt>
<totfact> 0.68797394E+00</totfact>
</mgrwt>
</event>
<event>
13    1  0.2101801E-008  0.1287620E+03  0.7546771E-02  0.1402450E+00
          2   -1    0    0  503    0  0.00000000000E+00  0.00000000000E+00  0.27967738278E+04  0.27967738278E+04  0.00000000000E+00 0. -1.
          2   -1    0    0  502    0 -0.00000000000E+00 -0.00000000000E+00 -0.18266485509E+04  0.18266485509E+04  0.00000000000E+00 0. -1.
         24    2    1    2    0    0  0.28396755219E+02  0.13592049758E+02 -0.71375950248E+03  0.71867333428E+03  0.77766409827E+02 0.  0.
         25    2    1    2    0    0  0.64326320066E+02 -0.19368314155E+03 -0.13233814128E+03  0.27347796935E+03  0.12500312520E+03 0.  0.
         24    2    1    2    0    0 -0.32968994169E+02 -0.31760802323E+02  0.30951838315E+03  0.32252253273E+03  0.78252485364E+02 0.  0.
        -11    1    3    3    0    0  0.17750847269E+02 -0.29106338613E+02 -0.18726428285E+03  0.19034227896E+03  0.00000000000E+00 0.  1.
         12    1    3    3    0    0  0.10645907950E+02  0.42698388371E+02 -0.52649521963E+03  0.52833105532E+03  0.00000000000E+00 0. -1.
        -11    1    5    5    0    0  0.21049963594E+02 -0.27463411327E+01  0.32642689240E+02  0.38938265469E+02  0.00000000000E+00 0.  1.
         12    1    5    5    0    0 -0.54018957763E+02 -0.29014461190E+02  0.27687569391E+03  0.28358426726E+03  0.00000000000E+00 0. -1.
          5    1    4    4  501    0 -0.54125674888E+01 -0.46161930102E+02 -0.95229824348E+02  0.10607086840E+03  0.47000000000E+01 0. -1.
         -5    1    4    4    0  501  0.69738887555E+02 -0.14752121145E+03 -0.37108316934E+02  0.16740710095E+03  0.47000000000E+01 0. -1.
          1    1    1    2  502    0  0.48965205591E+01  0.26506334241E+02 -0.89681823295E+03  0.89722321895E+03  0.00000000000E+00 0. -1.
          1    1    1    2  503    0 -0.64650601676E+02  0.18534555987E+03  0.24035227705E+04  0.24115253234E+04  0.00000000000E+00 0. -1.
<mgrwt>
<rscale>  0 0.58913111E+02</rscale>
<asrwt>0</asrwt>
<pdfrwt beam="1">  1        2 0.41129027E+00 0.12876199E+03</pdfrwt>
<pdfrwt beam="2">  1        2 0.26862479E+00 0.26954808E+02</pdfrwt>
<totfact> 0.70568732E+00</totfact>
</mgrwt>
</event>
<event>
13    1  0.2101801E-008  0.9144681E+02  0.7546771E-02  0.1436014E+00
          2   -1    0    0  502    0  0.00000000000E+00  0.00000000000E+00  0.15933103100E+04  0.15933103100E+04  0.00000000000E+00 0. -1.
          2   -1    0    0  503    0 -0.00000000000E+00 -0.00000000000E+00 -0.56102797136E+03  0.56102797136E+03  0.00000000000E+00 0. -1.
         24    2    1    2    0    0  0.79592576712E+02 -0.13945252035E+02 -0.51673481386E+02  0.12480691034E+03  0.79857171674E+02 0.  0.
         25    2    1    2    0    0  0.17482220740E+03 -0.56769252667E+02  0.27135826830E+03  0.35077849435E+03  0.12499876029E+03 0.  0.
         24    2    1    2    0    0 -0.28799821174E+03  0.84565249665E+01  0.13359073090E+03  0.32873181679E+03  0.84874267028E+02 0.  0.
        -11    1    3    3    0    0 -0.38997894634E+01  0.18293422078E+02 -0.25373219256E+02  0.31522339770E+02  0.00000000000E+00 0.  1.
         12    1    3    3    0    0  0.83492366175E+02 -0.32238674113E+02 -0.26300262131E+02  0.93284570569E+02  0.00000000000E+00 0. -1.
        -11    1    5    5    0    0 -0.20589349406E+03 -0.31817531273E+02  0.83371341780E+02  0.22439979239E+03  0.00000000000E+00 0.  1.
         12    1    5    5    0    0 -0.82104717682E+02  0.40274056240E+02  0.50219389125E+02  0.10433202440E+03  0.00000000000E+00 0. -1.
          5    1    4    4  501    0  0.50663091180E+01  0.25943495524E+02  0.10766109715E+02  0.28926312701E+02  0.47000000000E+01 0. -1.
         -5    1    4    4    0  501  0.16975589828E+03 -0.82712748191E+02  0.26059215858E+03  0.32185218165E+03  0.47000000000E+01 0. -1.
          1    1    1    2  502    0  0.21702133664E+02  0.89051709602E+02  0.10117982709E+04  0.10159414012E+04  0.00000000000E+00 0. -1.
          1    1    1    2  503    0  0.11881293967E+02 -0.26793729866E+02 -0.33279145010E+03  0.33407965871E+03  0.00000000000E+00 0. -1.
<mgrwt>
<rscale>  0 0.51771566E+02</rscale>
<asrwt>0</asrwt>
<pdfrwt beam="1">  1        2 0.23431034E+00 0.91446810E+02</pdfrwt>
<pdfrwt beam="2">  1        2 0.82504113E-01 0.29309881E+02</pdfrwt>
<totfact> 0.13460577E+02</totfact>
</mgrwt>
</event>
<event>
13    1  0.2101801E-008  0.5008558E+02  0.7546771E-02  0.1463501E+00
          2   -1    0    0  503    0  0.00000000000E+00  0.00000000000E+00  0.20640189944E+04  0.20640189944E+04  0.00000000000E+00 0. -1.
          2   -1    0    0  502    0 -0.00000000000E+00 -0.00000000000E+00 -0.13947992123E+04  0.13947992123E+04  0.00000000000E+00 0. -1.
         24    2    1    2    0    0 -0.97693898838E+01  0.25504079018E+02 -0.53310552578E+03  0.53999481375E+03  0.81529125081E+02 0.  0.
         25    2    1    2    0    0  0.86310031896E+02  0.46255961948E+01  0.87696479153E+02  0.17547287941E+03  0.12501696367E+03 0.  0.
         24    2    1    2    0    0 -0.75181365350E+02 -0.39694712295E+02 -0.56284842523E+02  0.13085158555E+03  0.82013694369E+02 0.  0.
        -11    1    3    3    0    0 -0.20176127760E+02  0.43595766502E+02 -0.48725659531E+03  0.48961888920E+03  0.00000000000E+00 0.  1.
         12    1    3    3    0    0  0.10406737876E+02 -0.18091687484E+02 -0.45848930473E+02  0.50375924555E+02  0.00000000000E+00 0. -1.
        -13    1    5    5    0    0 -0.90351777293E+02 -0.24649972324E+02 -0.56703057965E+02  0.10948196919E+03  0.00000000000E+00 0.  1.
         14    1    5    5    0    0  0.15170411943E+02 -0.15044739971E+02  0.41821544110E+00  0.21369616362E+02  0.00000000000E+00 0. -1.
          5    1    4    4  501    0  0.64650711823E+02  0.31487308252E+02  0.11187592937E+03  0.13307696530E+03  0.47000000000E+01 0. -1.
         -5    1    4    4    0  501  0.21659320072E+02 -0.26861712057E+02 -0.24179450216E+02  0.42395914111E+02  0.47000000000E+01 0. -1.
          1    1    1    2  502    0 -0.38985426255E+02  0.31791355700E+02 -0.71966212257E+03  0.72141813424E+03  0.00000000000E+00 0. -1.
          1    1    1    2  503    0  0.37626149594E+02 -0.22226318619E+02  0.18905757938E+04  0.18910807938E+04  0.00000000000E+00 0. -1.
<mgrwt>
<rscale>  0 0.46784255E+02</rscale>
<asrwt>0</asrwt>
<pdfrwt beam="1">  1        2 0.30353221E+00 0.43700531E+02</pdfrwt>
<pdfrwt beam="2">  1        2 0.20511753E+00 0.50085582E+02</pdfrwt>
<totfact> 0.27749819E+01</totfact>
</mgrwt>
</event>
<event>
13    1  0.2101801E-008  0.1256215E+03  0.7546771E-02  0.1318325E+00
          2   -1    0    0  503    0  0.00000000000E+00  0.00000000000E+00  0.18122030393E+04  0.18122030393E+04  0.00000000000E+00 0. -1.
          2   -1    0    0  502    0 -0.00000000000E+00 -0.00000000000E+00 -0.96336087528E+03  0.96336087528E+03  0.00000000000E+00 0. -1.
         24    2    1    2    0    0  0.22036623357E+01 -0.12891504470E+03 -0.30748461352E+02  0.16278202654E+03  0.94491139323E+02 0.  0.
         25    2    1    2    0    0  0.10911858535E+03  0.20652006881E+03 -0.22480227395E+03  0.34744942086E+03  0.12501053232E+03 0.  0.
         24    2    1    2    0    0 -0.66169984889E+01 -0.39552509386E+02  0.10903253743E+03  0.14189679056E+03  0.81476495302E+02 0.  0.
        -13    1    3    3    0    0  0.38369698484E+02 -0.85593224564E+02 -0.45787557141E+02  0.10437880169E+03  0.00000000000E+00 0.  1.
         14    1    3    3    0    0 -0.36166036149E+02 -0.43321820138E+02  0.15039095789E+02  0.58403224850E+02  0.00000000000E+00 0. -1.
        -13    1    5    5    0    0 -0.43909150794E+02 -0.16923491016E+02  0.60403239780E+02  0.76570029695E+02  0.00000000000E+00 0.  1.
         14    1    5    5    0    0  0.37292152305E+02 -0.22629018370E+02  0.48629297649E+02  0.65326760870E+02  0.00000000000E+00 0. -1.
          5    1    4    4  501    0  0.12173707202E+03  0.21132355196E+03 -0.18799733448E+03  0.30796533261E+03  0.47000000000E+01 0. -1.
         -5    1    4    4    0  501 -0.12618486666E+02 -0.48034831428E+01 -0.36804939469E+02  0.39484088256E+02  0.47000000000E+01 0. -1.
          1    1    1    2  502    0  0.53040745629E+02 -0.18087074685E+02 -0.55857873575E+03  0.56138281680E+03  0.00000000000E+00 0. -1.
          1    1    1    2  503    0 -0.15774599483E+03 -0.19965440040E+02  0.15539390976E+04  0.15620528598E+04  0.00000000000E+00 0. -1.
<mgrwt>
<rscale>  0 0.83903553E+02</rscale>
<asrwt>0</asrwt>
<pdfrwt beam="1">  1        2 0.26650045E+00 0.12562147E+03</pdfrwt>
<pdfrwt beam="2">  1        2 0.14167072E+00 0.56039834E+02</pdfrwt>
<totfact> 0.54503214E+01</totfact>
</mgrwt>
</event>
<event>
13    1  0.2101801E-008  0.1514954E+03  0.7546771E-02  0.1276829E+00
          2   -1    0    0  502    0  0.00000000000E+00  0.00000000000E+00  0.85575801323E+03  0.85575801323E+03  0.00000000000E+00 0. -1.
          2   -1    0    0  503    0 -0.00000000000E+00 -0.00000000000E+00 -0.17204486379E+04  0.17204486379E+04  0.00000000000E+00 0. -1.
         24    2    1    2    0    0  0.24587469299E+02  0.74684758370E+02 -0.18181556844E+02  0.11086223782E+03  0.76009933462E+02 0.  0.
         25    2    1    2    0    0 -0.24520560053E+03  0.83878340976E+02  0.21994484381E+03  0.36216469045E+03  0.12500466419E+03 0.  0.
         24    2    1    2    0    0  0.59051604348E+02 -0.52903153157E+02 -0.39039680167E+03  0.40695175296E+03  0.83151854418E+02 0.  0.
        -11    1    5    5    0    0  0.30647018091E+02  0.19901755215E+02 -0.13581191049E+03  0.14064207979E+03  0.00000000000E+00 0.  1.
         12    1    5    5    0    0  0.28404586257E+02 -0.72804908372E+02 -0.25458489118E+03  0.26630967317E+03  0.00000000000E+00 0. -1.
        -13    1    3    3    0    0  0.72164489901E+01  0.67564635746E+02 -0.42496066060E+02  0.80143451199E+02  0.00000000000E+00 0.  1.
         14    1    3    3    0    0  0.17371020309E+02  0.71201226239E+01  0.24314509217E+02  0.30718786617E+02  0.00000000000E+00 0. -1.
          5    1    4    4  501    0 -0.18877934831E+03  0.11362692925E+03  0.19228363835E+03  0.29247873252E+03  0.47000000000E+01 0.  1.
         -5    1    4    4    0  501 -0.56426252218E+02 -0.29748588278E+02  0.27661205465E+02  0.69685957924E+02  0.47000000000E+01 0.  1.
          1    1    1    2  502    0  0.51381011667E+02 -0.44888770482E+02  0.50444513082E+03  0.50903821083E+03  0.00000000000E+00 0. -1.
          1    1    1    2  503    0  0.11018551522E+03 -0.60771175707E+02 -0.11805022407E+04  0.11871897590E+04  0.00000000000E+00 0. -1.
<mgrwt>
<rscale>  0 0.10166696E+03</rscale>
<asrwt>0</asrwt>
<pdfrwt beam="1">  1        2 0.12584677E+00 0.68227634E+02</pdfrwt>
<pdfrwt beam="2">  1        2 0.25300715E+00 0.15149538E+03</pdfrwt>
<totfact> 0.68278600E+01</totfact>
</mgrwt>
</event>
<event>
13    1  0.2101801E-008  0.7226880E+02  0.7546771E-02  0.1484238E+00
          2   -1    0    0  503    0  0.00000000000E+00  0.00000000000E+00  0.17243126531E+04  0.17243126531E+04  0.00000000000E+00 0. -1.
         -3   -1    0    0    0  501 -0.00000000000E+00 -0.00000000000E+00 -0.50363294892E+03  0.50363294892E+03  0.00000000000E+00 0.  1.
         24    2    1    2    0    0  0.13710972454E+03 -0.78022686966E+02 -0.16344538366E+03  0.24183865134E+03  0.82975439747E+02 0.  0.
         25    2    1    2    0    0 -0.12820791228E+03  0.12244858707E+03  0.88115024969E+03  0.90745867425E+03  0.12499823075E+03 0.  0.
         24    2    1    2    0    0 -0.83831520242E+02 -0.74055108229E+01 -0.50059876710E+02  0.12719110005E+03  0.81172774373E+02 0.  0.
        -13    1    5    5    0    0 -0.12343872610E+02  0.22475002307E+02  0.11625146827E+02  0.28153879989E+02  0.00000000000E+00 0.  1.
         14    1    5    5    0    0 -0.71487647632E+02 -0.29880513130E+02 -0.61685023537E+02  0.99037220062E+02  0.00000000000E+00 0. -1.
        -13    1    3    3    0    0  0.10870267090E+03 -0.16823409316E+02 -0.11209520099E+03  0.15704977506E+03  0.00000000000E+00 0.  1.
         14    1    3    3    0    0  0.28407053633E+02 -0.61199277649E+02 -0.51350182667E+02  0.84788876280E+02  0.00000000000E+00 0. -1.
          5    1    4    4  502    0  0.11035683003E+02  0.65159332691E+02  0.26262450813E+03  0.27085281466E+03  0.47000000000E+01 0. -1.
         -5    1    4    4    0  502 -0.13924359529E+03  0.57289254376E+02  0.61852574156E+03  0.63660585959E+03  0.47000000000E+01 0. -1.
          1    1    1    2  503    0  0.22728598258E+02  0.12884679720E+02  0.74546441643E+03  0.74592211411E+03  0.00000000000E+00 0. -1.
         -4    1    1    2    0  501  0.52201109729E+02 -0.49905068999E+02 -0.19242970158E+03  0.20553506226E+03  0.00000000000E+00 0.  1.
<mgrwt>
<rscale>  0 0.43452790E+02</rscale>
<asrwt>0</asrwt>
<pdfrwt beam="1">  1        2 0.25357539E+00 0.26126694E+02</pdfrwt>
<pdfrwt beam="2">  1       -3 0.74063669E-01 0.72268804E+02</pdfrwt>
<totfact> 0.14967259E+01</totfact>
</mgrwt>
</event>
<event>
13    1  0.2101801E-008  0.1370111E+03  0.7546771E-02  0.1323887E+00
         -1   -1    0    0    0  501 -0.00000000000E+00  0.00000000000E+00  0.57651567539E+03  0.57651567539E+03  0.00000000000E+00 0.  1.
          2   -1    0    0  503    0  0.00000000000E+00 -0.00000000000E+00 -0.10369343677E+04  0.10369343677E+04  0.00000000000E+00 0. -1.
         24    2    1    2    0    0  0.97196969913E+02 -0.68823666765E+02  0.24589251279E+03  0.28443664327E+03  0.79102010868E+02 0.  0.
         25    2    1    2    0    0  0.12363055292E+03  0.78349999879E+02 -0.28663093472E+03  0.34526608977E+03  0.12501257501E+03 0.  0.
         24    2    1    2    0    0 -0.54181817458E+02  0.22097502281E+02 -0.31260775002E+02  0.10507708182E+03  0.81486122254E+02 0.  0.
        -11    1    5    5    0    0 -0.32179903007E+02  0.52990918691E+02 -0.23888762140E+02  0.66439871898E+02  0.00000000000E+00 0.  1.
         12    1    5    5    0    0 -0.22001914451E+02 -0.30893416410E+02 -0.73720128618E+01  0.38637209922E+02  0.00000000000E+00 0. -1.
        -13    1    3    3    0    0  0.66589636097E+02 -0.75845072027E+02  0.22532906130E+03  0.24690046669E+03  0.00000000000E+00 0.  1.
         14    1    3    3    0    0  0.30607333816E+02  0.70214052620E+01  0.20563451489E+02  0.37536176581E+02  0.00000000000E+00 0. -1.
          5    1    4    4  502    0  0.21238273848E+02  0.37525621126E+02 -0.20093720996E+03  0.20556529100E+03  0.47000000000E+01 0.  1.
         -5    1    4    4    0  502  0.10239227907E+03  0.40824378754E+02 -0.85693724765E+02  0.13970079878E+03  0.47000000000E+01 0.  1.
          1    1    1    2  503    0 -0.34159374780E+02 -0.34983194993E+02 -0.61458949241E+03  0.61653137065E+03  0.00000000000E+00 0. -1.
         -2    1    1    2    0  501 -0.13248633060E+03  0.33593595977E+01  0.22616999704E+03  0.26213885758E+03  0.00000000000E+00 0.  1.
<mgrwt>
<rscale>  0 0.81848102E+02</rscale>
<asrwt>0</asrwt>
<pdfrwt beam="2">  1        2 0.15249035E+00 0.48894650E+02</pdfrwt>
<pdfrwt beam="1">  1       -1 0.84781718E-01 0.13701114E+03</pdfrwt>
<totfact> 0.49470047E+01</totfact>
</mgrwt>
</event>
<event>
13    1  0.2101801E-008  0.8009639E+02  0.7546771E-02  0.1353113E+00
          2   -1    0    0  503    0  0.00000000000E+00  0.00000000000E+00  0.90564784843E+03  0.90564784843E+03  0.00000000000E+00 0. -1.
          2   -1    0    0  502    0 -0.00000000000E+00 -0.00000000000E+00 -0.10673904255E+04  0.10673904255E+04  0.00000000000E+00 0. -1.
         24    2    1    2    0    0  0.90714561072E+02 -0.13240481870E+02 -0.35344327513E+03  0.37391269562E+03  0.80523991844E+02 0.  0.
         25    2    1    2    0    0 -0.66283679076E+02 -0.12038360427E+03  0.23694573530E+03  0.30108962752E+03  0.12500377608E+03 0.  0.
         24    2    1    2    0    0 -0.93381543046E+00 -0.12600726590E+02 -0.78019711593E+02  0.11292795508E+03  0.80659762705E+02 0.  0.
        -11    1    3    3    0    0  0.49679792566E+02 -0.47366844368E+02 -0.19701794221E+03  0.20863309730E+03  0.00000000000E+00 0.  1.
         12    1    3    3    0    0  0.41034768505E+02  0.34126362498E+02 -0.15642533292E+03  0.16527959833E+03  0.00000000000E+00 0. -1.
        -11    1    5    5    0    0  0.33449911149E+02  0.14965318090E+02 -0.43960374862E+02  0.57230864570E+02  0.00000000000E+00 0.  1.
         12    1    5    5    0    0 -0.34383726579E+02 -0.27566044680E+02 -0.34059336731E+02  0.55697090510E+02  0.00000000000E+00 0. -1.
          5    1    4    4  501    0 -0.87055173732E+02 -0.42260628426E+02  0.84873021481E+02  0.12880249906E+03  0.47000000000E+01 0.  1.
         -5    1    4    4    0  501  0.20771494656E+02 -0.78122975847E+02  0.15207271382E+03  0.17228712846E+03  0.47000000000E+01 0.  1.
          1    1    1    2  502    0 -0.17018716992E+02  0.81657502716E+02 -0.57140119699E+03  0.57745728188E+03  0.00000000000E+00 0. -1.
          1    1    1    2  503    0 -0.64783495731E+01  0.64567310016E+02  0.60417587133E+03  0.60765071384E+03  0.00000000000E+00 0. -1.
<mgrwt>
<rscale>  0 0.72094206E+02</rscale>
<asrwt>0</asrwt>
<pdfrwt beam="1">  1        2 0.13318351E+00 0.64891498E+02</pdfrwt>
<pdfrwt beam="2">  1        2 0.15696918E+00 0.80096386E+02</pdfrwt>
<totfact> 0.14410009E+02</totfact>
</mgrwt>
</event>
<event>
13    1  0.2101801E-008  0.1170797E+03  0.7546771E-02  0.1359838E+00
          4   -1    0    0  503    0 -0.00000000000E+00  0.00000000000E+00  0.61215688082E+03  0.61215688082E+03  0.00000000000E+00 0. -1.
          2   -1    0    0  502    0  0.00000000000E+00 -0.00000000000E+00 -0.21169118147E+04  0.21169118147E+04  0.00000000000E+00 0. -1.
         24    2    1    2    0    0 -0.12937014546E+03  0.55837431828E+02 -0.28294665294E+03  0.32561639221E+03  0.78184225620E+02 0.  0.
         25    2    1    2    0    0  0.19698648734E+03 -0.55037891552E+02 -0.26751588770E+03  0.35919195516E+03  0.12498505820E+03 0.  0.
         24    2    1    2    0    0 -0.17164650982E+01 -0.45594827249E+02 -0.73924523655E+03  0.74468411212E+03  0.77389098428E+02 0.  0.
        -13    1    3    3    0    0 -0.65987613831E+02  0.66266243459E+02 -0.13397046001E+03  0.16338195848E+03  0.00000000000E+00 0.  1.
         14    1    3    3    0    0 -0.63382531626E+02 -0.10428811630E+02 -0.14897619293E+03  0.16223443373E+03  0.00000000000E+00 0. -1.
        -13    1    5    5    0    0  0.26983381336E+02 -0.13513691175E+02 -0.53997844066E+03  0.54082107864E+03  0.00000000000E+00 0.  1.
         14    1    5    5    0    0 -0.28699846434E+02 -0.32081136074E+02 -0.19926679589E+03  0.20386303348E+03  0.00000000000E+00 0. -1.
          5    1    4    4  501    0  0.68374905551E+02  0.33124601888E+02 -0.48357701374E+02  0.90182726958E+02  0.47000000000E+01 0.  1.
         -5    1    4    4    0  501  0.12861158179E+03 -0.88162493441E+02 -0.21915818633E+03  0.26900922820E+03  0.47000000000E+01 0.  1.
          1    1    1    2  502    0  0.18019829940E+02 -0.37873338333E+02 -0.75032158790E+03  0.75149290702E+03  0.00000000000E+00 0. -1.
          3    1    1    2  503    0 -0.83919706725E+02  0.82668625306E+02  0.53527443124E+03  0.54808332900E+03  0.00000000000E+00 0. -1.
<mgrwt>
<rscale>  0 0.70075105E+02</rscale>
<asrwt>0</asrwt>
<pdfrwt beam="2">  1        2 0.31131057E+00 0.41941674E+02</pdfrwt>
<pdfrwt beam="1">  1        4 0.90023069E-01 0.11707974E+03</pdfrwt>
<totfact> 0.49965316E+00</totfact>
</mgrwt>
</event>
<event>
13    1  0.2101801E-008  0.1054548E+03  0.7546771E-02  0.1337184E+00
          2   -1    0    0  503    0  0.00000000000E+00  0.00000000000E+00  0.26088675845E+03  0.26088675845E+03  0.00000000000E+00 0. -1.
          2   -1    0    0  502    0 -0.00000000000E+00 -0.00000000000E+00 -0.21573557495E+04  0.21573557495E+04  0.00000000000E+00 0. -1.
         24    2    1    2    0    0 -0.85033046364E+02 -0.64679811736E+02 -0.25767386103E+03  0.29001074098E+03  0.79349317623E+02 0.  0.
         25    2    1    2    0    0 -0.21889320643E+03 -0.14359190760E+03 -0.29141310847E+03  0.41119106257E+03  0.12499447349E+03 0.  0.
         24    2    1    2    0    0  0.22356509045E+03  0.12195004593E+03 -0.14519646425E+03  0.29991089945E+03  0.63335385110E+02 0.  0.
        -11    1    3    3    0    0 -0.27748698370E+02 -0.56447395945E+02 -0.72389942295E+02  0.95898918219E+02  0.00000000000E+00 0.  1.
         12    1    3    3    0    0 -0.57284347994E+02 -0.82324157917E+01 -0.18528391873E+03  0.19411182276E+03  0.00000000000E+00 0. -1.
        -11    1    5    5    0    0  0.94875610245E+02  0.31354927662E+02 -0.28256402184E+02  0.10384092244E+03  0.00000000000E+00 0.  1.
         12    1    5    5    0    0  0.12868948020E+03  0.90595118272E+02 -0.11694006206E+03  0.19606997701E+03  0.00000000000E+00 0. -1.
          5    1    4    4  501    0 -0.13164657993E+03 -0.94030311744E+02 -0.25942257963E+03  0.30576900817E+03  0.47000000000E+01 0.  1.
         -5    1    4    4    0  501 -0.87246626494E+02 -0.49561595858E+02 -0.31990528832E+02  0.10542205440E+03  0.47000000000E+01 0.  1.
          1    1    1    2  502    0  0.46503331055E+02  0.13157707968E+03 -0.12982194521E+04  0.13056985998E+04  0.00000000000E+00 0. -1.
          1    1    1    2  503    0  0.33857831291E+02 -0.45255406274E+02  0.96033894782E+02  0.11143120516E+03  0.00000000000E+00 0. -1.
<mgrwt>
<rscale>  0 0.77202359E+02</rscale>
<asrwt>0</asrwt>
<pdfrwt beam="1">  1        2 0.38365701E-01 0.56519063E+02</pdfrwt>
<pdfrwt beam="2">  1        2 0.31725819E+00 0.10545476E+03</pdfrwt>
<totfact> 0.15528772E+02</totfact>
</mgrwt>
</event>
<event>
13    1  0.2101801E-008  0.8228526E+02  0.7546771E-02  0.1372879E+00
          2   -1    0    0  503    0  0.00000000000E+00  0.00000000000E+00  0.19730988896E+03  0.19730988896E+03  0.00000000000E+00 0. -1.
          2   -1    0    0  502    0 -0.00000000000E+00 -0.00000000000E+00 -0.39482916853E+04  0.39482916853E+04  0.00000000000E+00 0. -1.
         24    2    1    2    0    0  0.13407428233E+03 -0.60066036803E+02 -0.60506195295E+03  0.62780680494E+03  0.80359040888E+02 0.  0.
         25    2    1    2    0    0 -0.16614456434E+03 -0.34850782100E+02  0.39422960527E+02  0.21446906744E+03  0.12499687116E+03 0.  0.
         24    2    1    2    0    0  0.16328602565E+02  0.25266622097E+02 -0.44964777027E+02  0.95828415817E+02  0.79096325142E+02 0.  0.
        -11    1    3    3    0    0  0.13970018561E+03 -0.40071486221E+02 -0.55235100651E+03  0.57115103104E+03  0.00000000000E+00 0.  1.
         12    1    3    3    0    0 -0.56259032773E+01 -0.19994550582E+02 -0.52710946447E+02  0.56655773898E+02  0.00000000000E+00 0. -1.
        -13    1    5    5    0    0 -0.19526219404E+02 -0.19103702709E+02 -0.11090150937E+02  0.29482471898E+02  0.00000000000E+00 0.  1.
         14    1    5    5    0    0  0.35854821969E+02  0.44370324806E+02 -0.33874626090E+02  0.66345943920E+02  0.00000000000E+00 0. -1.
          5    1    4    4  501    0 -0.16450675343E+03 -0.67135257678E+02  0.38089377587E+02  0.18177597595E+03  0.47000000000E+01 0. -1.
         -5    1    4    4    0  501 -0.16378109104E+01  0.32284475577E+02  0.13335829394E+01  0.32693091493E+02  0.47000000000E+01 0. -1.
          1    1    1    2  502    0  0.65516815699E+02  0.49932905122E+02 -0.31516989344E+04  0.31527752729E+04  0.00000000000E+00 0. -1.
          1    1    1    2  503    0 -0.49775136260E+02  0.19717291685E+02  0.11320907512E+02  0.54722013194E+02  0.00000000000E+00 0. -1.
<mgrwt>
<rscale>  0 0.66373205E+02</rscale>
<asrwt>0</asrwt>
<pdfrwt beam="1">  1        2 0.29016161E-01 0.53538171E+02</pdfrwt>
<pdfrwt beam="2">  1        2 0.58063112E+00 0.82285260E+02</pdfrwt>
<totfact> 0.22582602E+01</totfact>
</mgrwt>
</event>
<event>
13    1  0.2101801E-008  0.8983355E+02  0.7546771E-02  0.1405058E+00
         -3   -1    0    0    0  501 -0.00000000000E+00  0.00000000000E+00  0.11549519150E+04  0.11549519150E+04  0.00000000000E+00 0.  1.
          2   -1    0    0  503    0  0.00000000000E+00 -0.00000000000E+00 -0.93747658917E+03  0.93747658917E+03  0.00000000000E+00 0. -1.
         24    2    1    2    0    0 -0.47394584656E+02 -0.42771250218E+02 -0.26140565249E+02  0.10942117905E+03  0.84935497718E+02 0.  0.
         25    2    1    2    0    0  0.20624140991E+03 -0.25677751420E+02 -0.27929306055E+03  0.36989772526E+03  0.12499938960E+03 0.  0.
         24    2    1    2    0    0 -0.11511558343E+03  0.10341630122E+03 -0.11476725400E+03  0.20744567475E+03  0.76913304923E+02 0.  0.
        -13    1    3    3    0    0 -0.68581309512E+02 -0.26657176014E+02 -0.21879751307E+01  0.73612419351E+02  0.00000000000E+00 0.  1.
         14    1    3    3    0    0  0.21186724857E+02 -0.16114074204E+02 -0.23952590118E+02  0.35808759696E+02  0.00000000000E+00 0. -1.
        -13    1    5    5    0    0 -0.16614791827E+02 -0.12277166668E+02 -0.17105163290E+02  0.26821013031E+02  0.00000000000E+00 0.  1.
         14    1    5    5    0    0 -0.98500791600E+02  0.11569346789E+03 -0.97662090712E+02  0.18062466172E+03  0.00000000000E+00 0. -1.
          5    1    4    4  502    0  0.74279335111E+02 -0.70759981004E+02 -0.12758666449E+03  0.16378290965E+03  0.47000000000E+01 0.  1.
         -5    1    4    4    0  502  0.13196207480E+03  0.45082229584E+02 -0.15170639607E+03  0.20611481561E+03  0.47000000000E+01 0.  1.
          1    1    1    2  503    0 -0.59030684769E+02 -0.69587390363E+02 -0.37821512036E+03  0.38906773691E+03  0.00000000000E+00 0. -1.
         -4    1    1    2    0  501  0.15299442944E+02  0.34620090782E+02  0.10158913260E+04  0.10165961882E+04  0.00000000000E+00 0.  1.
<mgrwt>
<rscale>  0 0.58311243E+02</rscale>
<asrwt>0</asrwt>
<pdfrwt beam="2">  1        2 0.13786420E+00 0.89833545E+02</pdfrwt>
<pdfrwt beam="1">  1       -3 0.16984587E+00 0.37850015E+02</pdfrwt>
<totfact> 0.50617743E+00</totfact>
</mgrwt>
</event>
<event>
13    1  0.2101801E-008  0.1931631E+03  0.7546771E-02  0.1295702E+00
          2   -1    0    0  502    0  0.00000000000E+00  0.00000000000E+00  0.17637030020E+04  0.17637030020E+04  0.00000000000E+00 0. -1.
          2   -1    0    0  503    0 -0.00000000000E+00 -0.00000000000E+00 -0.23958773730E+04  0.23958773730E+04  0.00000000000E+00 0. -1.
         24    2    1    2    0    0  0.37805435800E+01 -0.16501495204E+03 -0.14887004814E+03  0.23642681134E+03  0.80567480919E+02 0.  0.
         25    2    1    2    0    0 -0.85757280763E+02 -0.90085388055E+01  0.97106633392E+02  0.18025323962E+03  0.12500426861E+03 0.  0.
         24    2    1    2    0    0  0.62992090531E+02  0.12517967281E+02  0.60327744910E+03  0.61203125252E+03  0.80708552771E+02 0.  0.
        -11    1    3    3    0    0  0.23847962405E+02 -0.16034251730E+03 -0.13918119391E+03  0.21365826196E+03  0.00000000000E+00 0.  1.
         12    1    3    3    0    0 -0.20067418825E+02 -0.46724347404E+01 -0.96888542245E+01  0.22768549380E+02  0.00000000000E+00 0. -1.
        -13    1    5    5    0    0 -0.16188389804E+02 -0.93719160533E+01  0.69680764397E+02  0.72147804554E+02  0.00000000000E+00 0.  1.
         14    1    5    5    0    0  0.79180480335E+02  0.21889883335E+02  0.53359668471E+03  0.53988344797E+03  0.00000000000E+00 0. -1.
          5    1    4    4  501    0  0.55246541255E+01  0.16147834746E+02  0.82445787240E+02  0.84324801831E+02  0.47000000000E+01 0.  1.
         -5    1    4    4    0  501 -0.91281934888E+02 -0.25156373552E+02  0.14660846152E+02  0.95928437791E+02  0.47000000000E+01 0.  1.
          1    1    1    2  502    0  0.28839117240E+02 -0.34275081375E+02  0.96861847259E+03  0.96965366050E+03  0.00000000000E+00 0. -1.
          1    1    1    2  503    0 -0.98544705889E+01  0.19578060494E+03 -0.21523068780E+04  0.21612154110E+04  0.00000000000E+00 0. -1.
<mgrwt>
<rscale>  0 0.93018766E+02</rscale>
<asrwt>0</asrwt>
<pdfrwt beam="1">  1        2 0.25936809E+00 0.44793704E+02</pdfrwt>
<pdfrwt beam="2">  1        2 0.35233491E+00 0.19316311E+03</pdfrwt>
<totfact> 0.10894614E+01</totfact>
</mgrwt>
</event>
<event>
13    1  0.2101801E-008  0.1097364E+03  0.7546771E-02  0.1276679E+00
          2   -1    0    0  503    0  0.00000000000E+00  0.00000000000E+00  0.19506361567E+04  0.19506361567E+04  0.00000000000E+00 0. -1.
          2   -1    0    0  502    0 -0.00000000000E+00 -0.00000000000E+00 -0.13432568494E+04  0.13432568494E+04  0.00000000000E+00 0. -1.
         24    2    1    2    0    0 -0.21099826927E+02  0.97243037166E+02 -0.17123935072E+03  0.21369768017E+03  0.80264389999E+02 0.  0.
         25    2    1    2    0    0  0.74403303589E+02  0.73936494344E+02  0.64384370853E+03  0.66420102100E+03  0.12500327398E+03 0.  0.
         24    2    1    2    0    0 -0.11287917449E+03 -0.23880170687E+03 -0.19437178453E+02  0.27720002385E+03  0.81817394697E+02 0.  0.
        -13    1    5    5    0    0 -0.21036267088E+02 -0.13364322392E+03 -0.24500836991E+02  0.13748936994E+03  0.00000000000E+00 0.  1.
         14    1    5    5    0    0 -0.91842907406E+02 -0.10515848295E+03  0.50636585380E+01  0.13971065391E+03  0.00000000000E+00 0. -1.
        -13    1    3    3    0    0  0.21456008871E+01  0.10055448285E+03 -0.11513776838E+03  0.15288071602E+03  0.00000000000E+00 0.  1.
         14    1    3    3    0    0 -0.23245427814E+02 -0.33114456867E+01 -0.56101582345E+02  0.60816964149E+02  0.00000000000E+00 0. -1.
          5    1    4    4  501    0 -0.33147904552E+02  0.14950391251E+02  0.21622507111E+03  0.21931180806E+03  0.47000000000E+01 0. -1.
         -5    1    4    4    0  501  0.10755120814E+03  0.58986103093E+02  0.42761863741E+03  0.44488921294E+03  0.47000000000E+01 0. -1.
          1    1    1    2  502    0  0.10923602869E+03 -0.12572923202E+02 -0.98729366796E+03  0.99339789367E+03  0.00000000000E+00 0. -1.
          1    1    1    2  503    0 -0.49660330854E+02  0.80195098567E+02  0.11415057959E+04  0.11453963874E+04  0.00000000000E+00 0. -1.
<mgrwt>
<rscale>  0 0.10173984E+03</rscale>
<asrwt>0</asrwt>
<pdfrwt beam="1">  1        2 0.28685826E+00 0.94326043E+02</pdfrwt>
<pdfrwt beam="2">  1        2 0.19753777E+00 0.10973635E+03</pdfrwt>
<totfact> 0.28921112E+01</totfact>
</mgrwt>
</event>
<event>
13    1  0.2101801E-008  0.8806650E+02  0.7546771E-02  0.1366304E+00
          2   -1    0    0  503    0  0.00000000000E+00  0.00000000000E+00  0.25255920275E+04  0.25255920275E+04  0.00000000000E+00 0. -1.
          2   -1    0    0  502    0 -0.00000000000E+00 -0.00000000000E+00 -0.40598878532E+04  0.40598878532E+04  0.00000000000E+00 0. -1.
         24    2    1    2    0    0 -0.20003064635E+02  0.15103403705E+02 -0.45042215362E+03  0.45822941220E+03  0.80410461629E+02 0.  0.
         25    2    1    2    0    0 -0.65257472641E+02 -0.48656965864E+02  0.57093825702E+03  0.59010320467E+03  0.12500104309E+03 0.  0.
         24    2    1    2    0    0  0.57090137711E+02 -0.21387496328E+02  0.97940209048E+02  0.14038276655E+03  0.79989547890E+02 0.  0.
        -13    1    5    5    0    0  0.64910484230E+02 -0.37020849892E+02  0.97571278832E+02  0.12289861164E+03  0.00000000000E+00 0.  1.
         14    1    5    5    0    0 -0.78203465192E+01  0.15633353564E+02  0.36893021631E+00  0.17484154908E+02  0.00000000000E+00 0. -1.
        -13    1    3    3    0    0  0.28754572159E+02  0.16791074505E+02 -0.23530853747E+03  0.23765284221E+03  0.00000000000E+00 0.  1.
         14    1    3    3    0    0 -0.48757636795E+02 -0.16876707995E+01 -0.21511361615E+03  0.22057656999E+03  0.00000000000E+00 0. -1.
          5    1    4    4  501    0 -0.79678119724E+02  0.67447962748E+01  0.43833337922E+03  0.44559211885E+03  0.47000000000E+01 0. -1.
         -5    1    4    4    0  501  0.14420647083E+02 -0.55401762139E+02  0.13260487779E+03  0.14451108582E+03  0.47000000000E+01 0. -1.
          1    1    1    2  502    0  0.80986748115E+02  0.54056885490E+02 -0.35737121878E+04  0.35750384336E+04  0.00000000000E+00 0. -1.
          1    1    1    2  503    0 -0.52816348549E+02  0.88417299662E+00  0.18209600497E+04  0.18217260637E+04  0.00000000000E+00 0. -1.
<mgrwt>
<rscale>  0 0.68205591E+02</rscale>
<asrwt>0</asrwt>
<pdfrwt beam="1">  1        2 0.37141059E+00 0.52823749E+02</pdfrwt>
<pdfrwt beam="2">  1        2 0.59704233E+00 0.88066500E+02</pdfrwt>
<totfact> 0.59586261E-01</totfact>
</mgrwt>
</event>
<event>
13    1  0.2101801E-008  0.7517773E+02  0.7546771E-02  0.1351504E+00
          2   -1    0    0  502    0  0.00000000000E+00  0.00000000000E+00  0.21840693338E+04  0.21840693338E+04  0.00000000000E+00 0. -1.
          2   -1    0    0  503    0 -0.00000000000E+00 -0.00000000000E+00 -0.24008172099E+04  0.24008172099E+04  0.00000000000E+00 0. -1.
         24    2    1    2    0    0  0.27461076258E+03  0.54523153087E+03  0.87889450483E+03  0.10729933276E+04  0.78553403853E+02 0.  0.
         25    2    1    2    0    0 -0.29748681277E+03 -0.87215426041E+03 -0.10578615736E+04  0.14084912759E+04  0.12500043028E+03 0.  0.
         24    2    1    2    0    0  0.17032117624E+02  0.26968822065E+03 -0.27385116665E+03  0.39039598273E+03  0.66277692100E+02 0.  0.
        -11    1    3    3    0    0  0.10843979434E+03  0.19584793824E+03  0.25972374749E+03  0.34288777890E+03  0.00000000000E+00 0.  1.
         12    1    3    3    0    0  0.16617096824E+03  0.34938359263E+03  0.61917075734E+03  0.73010554869E+03  0.00000000000E+00 0. -1.
        -11    1    5    5    0    0  0.37485089793E+02  0.16402039551E+03 -0.19124699879E+03  0.25472188097E+03  0.00000000000E+00 0.  1.
         12    1    5    5    0    0 -0.20452972169E+02  0.10566782514E+03 -0.82604167855E+02  0.13567410176E+03  0.00000000000E+00 0. -1.
          5    1    4    4  501    0 -0.24857924239E+01 -0.14585774677E+03 -0.17105177502E+03  0.22485875832E+03  0.47000000000E+01 0. -1.
         -5    1    4    4    0  501 -0.29500102035E+03 -0.72629651364E+03 -0.88680979861E+03  0.11836325176E+04  0.47000000000E+01 0. -1.
          1    1    1    2  502    0  0.68382125210E+02  0.15375556653E+02  0.97135495593E+03  0.97388036904E+03  0.00000000000E+00 0. -1.
          1    1    1    2  503    0 -0.62538192646E+02  0.41858952230E+02 -0.73528459661E+03  0.73912558840E+03  0.00000000000E+00 0. -1.
<mgrwt>
<rscale>  0 0.72588990E+02</rscale>
<asrwt>0</asrwt>
<pdfrwt beam="1">  1        2 0.32118667E+00 0.70089391E+02</pdfrwt>
<pdfrwt beam="2">  1        2 0.35306135E+00 0.75177732E+02</pdfrwt>
<totfact> 0.73515917E+00</totfact>
</mgrwt>
</event>
<event>
13    1  0.2101801E-008  0.8967038E+02  0.7546771E-02  0.1462063E+00
          2   -1    0    0  502    0  0.00000000000E+00  0.00000000000E+00  0.23817283895E+04  0.23817283895E+04  0.00000000000E+00 0. -1.
          2   -1    0    0  503    0 -0.00000000000E+00 -0.00000000000E+00 -0.79357879696E+03  0.79357879696E+03  0.00000000000E+00 0. -1.
         24    2    1    2    0    0 -0.57244867926E+02 -0.15418230370E+03 -0.55195363473E+03  0.58184710747E+03  0.82728978598E+02 0.  0.
         25    2    1    2    0    0  0.16401944931E+03  0.19353136774E+02  0.29778944397E+03  0.36273527927E+03  0.12498562411E+03 0.  0.
         24    2    1    2    0    0 -0.79225297413E+02  0.22823155425E+03  0.12309475109E+03  0.28263138521E+03  0.79761469723E+02 0.  0.
        -11    1    3    3    0    0  0.37940168720E+01 -0.48363792195E+01 -0.12931176196E+03  0.12945778041E+03  0.00000000000E+00 0.  1.
         12    1    3    3    0    0 -0.61038884798E+02 -0.14934592448E+03 -0.42264187277E+03  0.45238932706E+03  0.00000000000E+00 0. -1.
        -13    1    5    5    0    0 -0.33611537637E+02  0.17983613675E+02  0.92450312150E+01  0.39225201405E+02  0.00000000000E+00 0.  1.
         14    1    5    5    0    0 -0.45613759776E+02  0.21024794058E+03  0.11384971987E+03  0.24340618380E+03  0.00000000000E+00 0. -1.
          5    1    4    4  501    0  0.17996788775E+03  0.34290487884E+02  0.27746314071E+03  0.33252392791E+03  0.47000000000E+01 0. -1.
         -5    1    4    4    0  501 -0.15948438441E+02 -0.14937351110E+02  0.20326303257E+02  0.30211351360E+02  0.47000000000E+01 0. -1.
          1    1    1    2  502    0  0.18311131831E+02 -0.16523635146E+02  0.18160532921E+04  0.18162207707E+04  0.00000000000E+00 0. -1.
          1    1    1    2  503    0 -0.45860415804E+02 -0.76878752180E+02 -0.96834259953E+02  0.13187264377E+03  0.00000000000E+00 0. -1.
<mgrwt>
<rscale>  0 0.47028266E+02</rscale>
<asrwt>0</asrwt>
<pdfrwt beam="1">  1        2 0.35025417E+00 0.24664308E+02</pdfrwt>
<pdfrwt beam="2">  1        2 0.11670276E+00 0.89670381E+02</pdfrwt>
<totfact> 0.44398976E+01</totfact>
</mgrwt>
</event>
<event>
13    1  0.2101801E-008  0.3714675E+02  0.7546771E-02  0.1551717E+00
          2   -1    0    0  503    0  0.00000000000E+00  0.00000000000E+00  0.12001863564E+04  0.12001863564E+04  0.00000000000E+00 0. -1.
          2   -1    0    0  502    0 -0.00000000000E+00 -0.00000000000E+00 -0.40567739375E+04  0.40567739375E+04  0.00000000000E+00 0. -1.
         24    2    1    2    0    0  0.12188097546E+03 -0.54685232003E+03 -0.15307653036E+04  0.16319074065E+04  0.77310650672E+02 0.  0.
         25    2    1    2    0    0 -0.25953090308E+03  0.68942534059E+03 -0.58844841579E+03  0.95108338822E+03  0.12499793362E+03 0.  0.
         24    2    1    2    0    0  0.12459336868E+03 -0.18151869608E+03 -0.38972082370E+03  0.45082637423E+03  0.53754578697E+02 0.  0.
        -13    1    3    3    0    0  0.27386066854E+02 -0.81433312914E+02 -0.31997480843E+03  0.33130840488E+03  0.00000000000E+00 0.  1.
         14    1    3    3    0    0  0.94494908601E+02 -0.46541900711E+03 -0.12107904951E+04  0.13005990016E+04  0.00000000000E+00 0. -1.
        -13    1    5    5    0    0  0.80345535880E+02 -0.95411148497E+02 -0.26545766476E+03  0.29330268354E+03  0.00000000000E+00 0.  1.
         14    1    5    5    0    0  0.44247832805E+02 -0.86107547588E+02 -0.12426315895E+03  0.15752369070E+03  0.00000000000E+00 0. -1.
          5    1    4    4  501    0 -0.51631662879E+02  0.48570250389E+02 -0.80135878372E+02  0.10709223518E+03  0.47000000000E+01 0. -1.
         -5    1    4    4    0  501 -0.20789924020E+03  0.64085509020E+03 -0.50831253742E+03  0.84399115303E+03  0.47000000000E+01 0. -1.
          1    1    1    2  502    0 -0.18554182350E+02  0.32192806174E+02 -0.12848508695E+04  0.12853880314E+04  0.00000000000E+00 0. -1.
          1    1    1    2  503    0  0.31610741285E+02  0.67528693515E+01  0.93719783142E+03  0.93775509353E+03  0.00000000000E+00 0. -1.
<mgrwt>
<rscale>  0 0.34651566E+02</rscale>
<asrwt>0</asrwt>
<pdfrwt beam="1">  1        2 0.17649800E+00 0.32323988E+02</pdfrwt>
<pdfrwt beam="2">  1        2 0.59658439E+00 0.37146747E+02</pdfrwt>
<totfact> 0.32195323E+00</totfact>
</mgrwt>
</event>
<event>
13    1  0.2101801E-008  0.2131088E+03  0.7546771E-02  0.1205649E+00
          2   -1    0    0  502    0  0.00000000000E+00  0.00000000000E+00  0.93406191561E+03  0.93406191561E+03  0.00000000000E+00 0. -1.
          2   -1    0    0  503    0 -0.00000000000E+00 -0.00000000000E+00 -0.33246793037E+04  0.33246793037E+04  0.00000000000E+00 0. -1.
         24    2    1    2    0    0 -0.52313930151E+02 -0.63669052338E+02 -0.89022521358E+03  0.89749953913E+03  0.78828905470E+02 0.  0.
         25    2    1    2    0    0 -0.47723399999E+02  0.35645891865E+03  0.11724459513E+03  0.39838499863E+03  0.12499531370E+03 0.  0.
         24    2    1    2    0    0 -0.11016476066E+03 -0.51633105025E+01  0.14473488419E+03  0.19895192520E+03  0.80440957055E+02 0.  0.
        -11    1    5    5    0    0 -0.81263576745E+02 -0.37219465783E+02  0.73770591235E+02  0.11589287152E+03  0.00000000000E+00 0.  1.
         12    1    5    5    0    0 -0.28901183918E+02  0.32056155280E+02  0.70964292951E+02  0.83059053674E+02  0.00000000000E+00 0. -1.
        -11    1    3    3    0    0 -0.42108715024E+02  0.67454473246E+01 -0.30582652044E+03  0.30878553325E+03  0.00000000000E+00 0.  1.
         12    1    3    3    0    0 -0.10205215127E+02 -0.70414499663E+02 -0.58439869314E+03  0.58871400588E+03  0.00000000000E+00 0. -1.
          5    1    4    4  501    0  0.88013971696E+01  0.25962522532E+02  0.48759718861E+02  0.56134814080E+02  0.47000000000E+01 0. -1.
         -5    1    4    4    0  501 -0.56524797169E+02  0.33049639612E+03  0.68484876265E+02  0.34225018455E+03  0.47000000000E+01 0. -1.
          1    1    1    2  502    0  0.75444146685E+02 -0.34577272450E+03  0.43548253800E+03  0.56115562653E+03  0.00000000000E+00 0. -1.
          1    1    1    2  503    0  0.13475794413E+03  0.58146168687E+02 -0.21978541918E+04  0.22027491298E+04  0.00000000000E+00 0. -1.
<mgrwt>
<rscale>  0 0.14586404E+03</rscale>
<asrwt>0</asrwt>
<pdfrwt beam="1">  1        2 0.13736205E+00 0.21310876E+03</pdfrwt>
<pdfrwt beam="2">  1        2 0.48892342E+00 0.99837837E+02</pdfrwt>
<totfact> 0.92915215E+00</totfact>
</mgrwt>
</event>
<event>
13    1  0.2101801E-008  0.9105075E+02  0.7546771E-02  0.1396826E+00
          2   -1    0    0  502    0  0.00000000000E+00  0.00000000000E+00  0.30626891582E+04  0.30626891582E+04  0.00000000000E+00 0. -1.
          4   -1    0    0  503    0 -0.00000000000E+00 -0.00000000000E+00 -0.27266787302E+03  0.27266787302E+03  0.00000000000E+00 0. -1.
         24    2    1    2    0    0  0.11599790219E+03  0.17072990465E+03 -0.76330099167E+01  0.22090624240E+03  0.78339590485E+02 0.  0.
         25    2    1    2    0    0 -0.49970677545E+02 -0.67520260979E+02  0.14188652017E+04  0.14268341797E+04  0.12498504447E+03 0.  0.
         24    2    1    2    0    0 -0.12689241294E+03 -0.86859667642E+02  0.64623769996E+02  0.18487626500E+03  0.79729012214E+02 0.  0.
        -13    1    5    5    0    0 -0.91617373053E+02 -0.14949705369E+02  0.29363196021E+02  0.97362385018E+02  0.00000000000E+00 0.  1.
         14    1    5    5    0    0 -0.35275039887E+02 -0.71909962273E+02  0.35260573975E+02  0.87513879985E+02  0.00000000000E+00 0. -1.
        -13    1    3    3    0    0  0.62897603466E+02  0.74341714747E+02  0.34150027707E+02  0.10319410577E+03  0.00000000000E+00 0.  1.
         14    1    3    3    0    0  0.53100298722E+02  0.96388189899E+02 -0.41783037624E+02  0.11771213663E+03  0.00000000000E+00 0. -1.
          5    1    4    4  501    0 -0.58591630170E+02  0.15374975803E+02  0.40416930318E+03  0.40871051447E+03  0.47000000000E+01 0. -1.
         -5    1    4    4    0  501  0.86209526252E+01 -0.82895236782E+02  0.10146958986E+04  0.10181236652E+04  0.47000000000E+01 0. -1.
          1    1    1    2  502    0 -0.12950863856E+02  0.37692833093E+02  0.13859074611E+04  0.13864804237E+04  0.00000000000E+00 0. -1.
          3    1    1    2  503    0  0.73816052154E+02 -0.54042809119E+02 -0.71742137744E+02  0.11625992044E+03  0.00000000000E+00 0. -1.
<mgrwt>
<rscale>  0 0.60240257E+02</rscale>
<asrwt>0</asrwt>
<pdfrwt beam="1">  1        2 0.45039544E+00 0.39855671E+02</pdfrwt>
<pdfrwt beam="2">  1        4 0.40098218E-01 0.91050745E+02</pdfrwt>
<totfact> 0.93732371E+00</totfact>
</mgrwt>
</event>
<event>
13    1  0.2101801E-008  0.5945466E+02  0.7546771E-02  0.1409050E+00
          2   -1    0    0  503    0  0.00000000000E+00  0.00000000000E+00  0.24029492699E+04  0.24029492699E+04  0.00000000000E+00 0. -1.
         -1   -1    0    0    0  501 -0.00000000000E+00 -0.00000000000E+00 -0.18391140043E+03  0.18391140043E+03  0.00000000000E+00 0.  1.
         24    2    1    2    0    0  0.23135627519E+02  0.77919645950E+02  0.15163056526E+03  0.18983621081E+03  0.80244813711E+02 0.  0.
         25    2    1    2    0    0 -0.64169346821E+02 -0.94114787039E+02  0.59989218179E+03  0.62327461161E+03  0.12500125397E+03 0.  0.
         24    2    1    2    0    0  0.14014484634E+02 -0.48180710689E+02  0.52971718468E+03  0.53839404685E+03  0.82158793068E+02 0.  0.
        -11    1    5    5    0    0  0.21446107989E+02 -0.55815900733E+02  0.52155703940E+03  0.52497342378E+03  0.00000000000E+00 0.  1.
         12    1    5    5    0    0 -0.74316233558E+01  0.76351900433E+01  0.81601452719E+01  0.13420623069E+02  0.00000000000E+00 0. -1.
        -11    1    3    3    0    0  0.51580374049E+01  0.82722570721E+02  0.77730874438E+02  0.11362974037E+03  0.00000000000E+00 0.  1.
         12    1    3    3    0    0  0.17977590114E+02 -0.48029247711E+01  0.73899690819E+02  0.76206470432E+02  0.00000000000E+00 0. -1.
          5    1    4    4  502    0 -0.44211605293E+02  0.18409516284E+02  0.10760443951E+03  0.11787443206E+03  0.47000000000E+01 0. -1.
         -5    1    4    4    0  502 -0.19957741528E+02 -0.11252430332E+03  0.49228774228E+03  0.50540017954E+03  0.47000000000E+01 0. -1.
          1    1    1    2  503    0  0.57070885044E+02  0.17800701417E+02  0.10805591921E+04  0.10822116791E+04  0.00000000000E+00 0. -1.
         -2    1    1    2    0  501 -0.30051650376E+02  0.46575150361E+02 -0.14276125436E+03  0.15314412189E+03  0.00000000000E+00 0.  1.
<mgrwt>
<rscale>  0 0.57406424E+02</rscale>
<asrwt>0</asrwt>
<pdfrwt beam="1">  1        2 0.35337487E+00 0.59454660E+02</pdfrwt>
<pdfrwt beam="2">  1       -1 0.27045796E-01 0.55428750E+02</pdfrwt>
<totfact> 0.84261068E+01</totfact>
</mgrwt>
</event>
<event>
13    1  0.2101801E-008  0.7613418E+02  0.7546771E-02  0.1358870E+00
          2   -1    0    0  502    0  0.00000000000E+00  0.00000000000E+00  0.21350068802E+04  0.21350068802E+04  0.00000000000E+00 0. -1.
          2   -1    0    0  503    0 -0.00000000000E+00 -0.00000000000E+00 -0.28184110509E+04  0.28184110509E+04  0.00000000000E+00 0. -1.
         24    2    1    2    0    0  0.67577506158E+02 -0.38468466765E+02 -0.22037606413E+03  0.25079506531E+03  0.91027539071E+02 0.  0.
         25    2    1    2    0    0 -0.10934283406E+03  0.97731199417E+02 -0.15494247194E+04  0.15613615348E+04  0.12500255405E+03 0.  0.
         24    2    1    2    0    0 -0.40844168997E+01  0.63110537246E+01  0.12832371702E+02  0.80700691918E+02  0.79318472326E+02 0.  0.
        -13    1    3    3    0    0 -0.13770194303E+02 -0.35581208435E+02 -0.76611780448E+02  0.85586246256E+02  0.00000000000E+00 0.  1.
         14    1    3    3    0    0  0.81347700461E+02 -0.28872583296E+01 -0.14376428368E+03  0.16520881905E+03  0.00000000000E+00 0. -1.
        -13    1    5    5    0    0 -0.14627569712E+02  0.53735069289E+01 -0.31488430239E+02  0.35133482767E+02  0.00000000000E+00 0.  1.
         14    1    5    5    0    0  0.10543152813E+02  0.93754679575E+00  0.44320801941E+02  0.45567209152E+02  0.00000000000E+00 0. -1.
          5    1    4    4  501    0 -0.63910760631E+02 -0.19325426420E+02 -0.56425318322E+03  0.56820929436E+03  0.47000000000E+01 0.  1.
         -5    1    4    4    0  501 -0.45432073433E+02  0.11705662584E+03 -0.98517153623E+03  0.99315224046E+03  0.47000000000E+01 0.  1.
          1    1    1    2  502    0  0.75740160653E+02 -0.78252192821E+01  0.20652961122E+04  0.20666992614E+04  0.00000000000E+00 0. -1.
          1    1    1    2  503    0 -0.29890415847E+02 -0.57748567095E+02 -0.99173187103E+03  0.99386137765E+03  0.00000000000E+00 0. -1.
<mgrwt>
<rscale>  0 0.70361027E+02</rscale>
<asrwt>0</asrwt>
<pdfrwt beam="1">  1        2 0.31397160E+00 0.76134184E+02</pdfrwt>
<pdfrwt beam="2">  1        2 0.41447221E+00 0.65025641E+02</pdfrwt>
<totfact> 0.48678790E+00</totfact>
</mgrwt>
</event>
<event>
13    1  0.2101801E-008  0.1044994E+03  0.7546771E-02  0.1335378E+00
          2   -1    0    0  502    0  0.00000000000E+00  0.00000000000E+00  0.94832143723E+03  0.94832143723E+03  0.00000000000E+00 0. -1.
          2   -1    0    0  503    0 -0.00000000000E+00 -0.00000000000E+00 -0.12388990875E+04  0.12388990875E+04  0.00000000000E+00 0. -1.
         24    2    1    2    0    0  0.30524675428E+02 -0.96783485692E+02 -0.14195438146E+03  0.19385385263E+03  0.84436193973E+02 0.  0.
         25    2    1    2    0    0 -0.14607896045E+03 -0.52692240303E+02  0.43853450302E+03  0.48171967636E+03  0.12500320550E+03 0.  0.
         24    2    1    2    0    0  0.19090315956E+02  0.48856289962E+02  0.89969256196E+02  0.13049062246E+03  0.78625430100E+02 0.  0.
        -11    1    5    5    0    0 -0.22079260607E+02 -0.22293960303E+01  0.47241573354E+02  0.52194158759E+02  0.00000000000E+00 0.  1.
         12    1    5    5    0    0  0.41169576563E+02  0.51085685993E+02  0.42727682843E+02  0.78296463706E+02  0.00000000000E+00 0. -1.
        -13    1    3    3    0    0 -0.20525198616E+02  0.18199358314E+01 -0.27820733313E+02  0.34620646249E+02  0.00000000000E+00 0.  1.
         14    1    3    3    0    0  0.51049874045E+02 -0.98603421523E+02 -0.11413364815E+03  0.15923320638E+03  0.00000000000E+00 0. -1.
          5    1    4    4  501    0  0.12995177363E+02 -0.21326752158E+02  0.13689154591E+03  0.13923034990E+03  0.47000000000E+01 0.  1.
         -5    1    4    4    0  501 -0.15907413781E+03 -0.31365488145E+02  0.30164295711E+03  0.34248932646E+03  0.47000000000E+01 0.  1.
          1    1    1    2  502    0  0.14572430397E+01  0.57921552098E+02  0.34697078184E+03  0.35177514581E+03  0.00000000000E+00 0. -1.
          1    1    1    2  503    0  0.95006726027E+02  0.42697883934E+02 -0.10240978099E+04  0.10293812275E+04  0.00000000000E+00 0. -1.
<mgrwt>
<rscale>  0 0.77811843E+02</rscale>
<asrwt>0</asrwt>
<pdfrwt beam="1">  1        2 0.13945904E+00 0.57939881E+02</pdfrwt>
<pdfrwt beam="2">  1        2 0.18219104E+00 0.10449940E+03</pdfrwt>
<totfact> 0.10891488E+02</totfact>
</mgrwt>
</event>
<event>
13    1  0.2101801E-008  0.1616586E+03  0.7546771E-02  0.1203375E+00
          2   -1    0    0  502    0  0.00000000000E+00  0.00000000000E+00  0.28061630881E+04  0.28061630881E+04  0.00000000000E+00 0. -1.
          2   -1    0    0  503    0 -0.00000000000E+00 -0.00000000000E+00 -0.13365499664E+04  0.13365499664E+04  0.00000000000E+00 0. -1.
         24    2    1    2    0    0  0.30569131641E+02  0.16473113618E+03 -0.78965441513E+03  0.81076230692E+03  0.75568538101E+02 0.  0.
         25    2    1    2    0    0 -0.51646568159E+02 -0.40206057883E+03  0.34834842855E+03  0.54889923988E+03  0.12499468316E+03 0.  0.
         24    2    1    2    0    0  0.66198125111E+01  0.37124504890E+02 -0.38397362862E+02  0.95407859505E+02  0.78779765166E+02 0.  0.
        -11    1    3    3    0    0  0.38433192637E+02  0.33952652669E+02 -0.17837754083E+03  0.18560290944E+03  0.00000000000E+00 0.  1.
         12    1    3    3    0    0 -0.78640609957E+01  0.13077848351E+03 -0.61127687430E+03  0.62515939748E+03  0.00000000000E+00 0. -1.
        -11    1    5    5    0    0  0.13515414532E+02 -0.54162073654E+01  0.18808305865E+02  0.23785586007E+02  0.00000000000E+00 0.  1.
         12    1    5    5    0    0 -0.68956020213E+01  0.42540712255E+02 -0.57205668727E+02  0.71622273497E+02  0.00000000000E+00 0. -1.
          5    1    4    4  501    0 -0.91979715883E+02 -0.26664954274E+03  0.24696694452E+03  0.37493600583E+03  0.47000000000E+01 0.  1.
         -5    1    4    4    0  501  0.40333147723E+02 -0.13541103609E+03  0.10138148403E+03  0.17396323405E+03  0.47000000000E+01 0.  1.
          1    1    1    2  502    0 -0.12964182712E+03 -0.37310122676E+02  0.22639208436E+04  0.22679366469E+04  0.00000000000E+00 0. -1.
          1    1    1    2  503    0  0.14409945113E+03  0.23751506044E+03 -0.31460437245E+03  0.41970700127E+03  0.00000000000E+00 0. -1.
<mgrwt>
<rscale>  0 0.14766220E+03</rscale>
<asrwt>0</asrwt>
<pdfrwt beam="1">  1        2 0.41267104E+00 0.13487756E+03</pdfrwt>
<pdfrwt beam="2">  1        2 0.19655147E+00 0.16165865E+03</pdfrwt>
<totfact> 0.10229845E+01</totfact>
</mgrwt>
</event>
<event>
13    1  0.2101801E-008  0.1381937E+03  0.7546771E-02  0.1393618E+00
         -3   -1    0    0    0  501 -0.00000000000E+00  0.00000000000E+00  0.26135673190E+04  0.26135673190E+04  0.00000000000E+00 0.  1.
          2   -1    0    0  503    0  0.00000000000E+00 -0.00000000000E+00 -0.22127038775E+04  0.22127038775E+04  0.00000000000E+00 0. -1.
         24    2    1    2    0    0 -0.45740691346E+03  0.24326086580E+03 -0.30184359738E+02  0.52525297484E+03  0.81133585532E+02 0.  0.
         25    2    1    2    0    0  0.37517295889E+02 -0.21433112131E+02 -0.60060791086E+03  0.61499493896E+03  0.12498794574E+03 0.  0.
         24    2    1    2    0    0  0.46272228264E+03 -0.34574249801E+03 -0.75955888185E+03  0.95961615763E+03  0.10140852636E+03 0.  0.
        -11    1    5    5    0    0  0.26132557616E+03 -0.18272907143E+03 -0.49881023568E+03  0.59202417309E+03  0.00000000000E+00 0.  1.
         12    1    5    5    0    0  0.20139670647E+03 -0.16301342658E+03 -0.26074864617E+03  0.36759198455E+03  0.00000000000E+00 0. -1.
        -13    1    3    3    0    0 -0.18996645706E+03  0.59831212707E+02 -0.26586353012E+02  0.20093248365E+03  0.00000000000E+00 0.  1.
         14    1    3    3    0    0 -0.26744045640E+03  0.18342965309E+03 -0.35980067263E+01  0.32432049119E+03  0.00000000000E+00 0. -1.
          5    1    4    4  502    0 -0.11928456668E+02 -0.55838086909E+02 -0.15387088583E+03  0.16419049769E+03  0.47000000000E+01 0. -1.
         -5    1    4    4    0  502  0.49445752556E+02  0.34404974778E+02 -0.44673702503E+03  0.45080444127E+03  0.47000000000E+01 0. -1.
          1    1    1    2  503    0  0.26590641363E+02  0.43237234867E+01 -0.46508977483E+03  0.46586935448E+03  0.00000000000E+00 0. -1.
         -4    1    1    2    0  501 -0.69423306433E+02  0.11959102086E+03  0.22563043688E+04  0.22605377706E+04  0.00000000000E+00 0.  1.
<mgrwt>
<rscale>  0 0.61015732E+02</rscale>
<asrwt>0</asrwt>
<pdfrwt beam="2">  1        2 0.32539763E+00 0.26939874E+02</pdfrwt>
<pdfrwt beam="1">  1       -3 0.38434814E+00 0.13819365E+03</pdfrwt>
<totfact> 0.87467735E-02</totfact>
</mgrwt>
</event>
<event>
13    1  0.2101801E-008  0.1099549E+03  0.7546771E-02  0.1305518E+00
          2   -1    0    0  502    0  0.00000000000E+00  0.00000000000E+00  0.85206735883E+03  0.85206735883E+03  0.00000000000E+00 0. -1.
          2   -1    0    0  503    0 -0.00000000000E+00 -0.00000000000E+00 -0.20623289628E+04  0.20623289628E+04  0.00000000000E+00 0. -1.
         24    2    1    2    0    0 -0.41535452932E+02  0.24165663780E+02 -0.38608356994E+03  0.39609755247E+03  0.74320757077E+02 0.  0.
         25    2    1    2    0    0  0.38498465706E+02 -0.10885388118E+03  0.37882587470E+02  0.17433248519E+03  0.12500170258E+03 0.  0.
         24    2    1    2    0    0  0.11633898599E+03 -0.36756081926E+02 -0.93737242478E+02  0.17242375048E+03  0.77830006321E+02 0.  0.
        -11    1    5    5    0    0  0.83375606748E+02  0.13170191703E+02 -0.61731648155E+02  0.10457409877E+03  0.00000000000E+00 0.  1.
         12    1    5    5    0    0  0.32963379241E+02 -0.49926273629E+02 -0.32005594323E+02  0.67849651712E+02  0.00000000000E+00 0. -1.
        -13    1    3    3    0    0 -0.52556720732E+02 -0.76937714187E+00 -0.32477434285E+03  0.32900026537E+03  0.00000000000E+00 0.  1.
         14    1    3    3    0    0  0.11021267800E+02  0.24935040921E+02 -0.61309227090E+02  0.67097287099E+02  0.00000000000E+00 0. -1.
          5    1    4    4  501    0 -0.62904531910E+01 -0.11276416340E+03 -0.34366577852E+01  0.11308946443E+03  0.47000000000E+01 0. -1.
         -5    1    4    4    0  501  0.44788918897E+02  0.39102822194E+01  0.41319245255E+02  0.61243020757E+02  0.47000000000E+01 0. -1.
          1    1    1    2  502    0 -0.39547983019E+02  0.60034447717E+02  0.69819540003E+03  0.70188673908E+03  0.00000000000E+00 0. -1.
          1    1    1    2  503    0 -0.73754015744E+02  0.61409851611E+02 -0.14665187791E+04  0.14696557944E+04  0.00000000000E+00 0. -1.
<mgrwt>
<rscale>  0 0.88908152E+02</rscale>
<asrwt>0</asrwt>
<pdfrwt beam="1">  1        2 0.12530402E+00 0.71890040E+02</pdfrwt>
<pdfrwt beam="2">  1        2 0.30328367E+00 0.10995486E+03</pdfrwt>
<totfact> 0.48107407E+01</totfact>
</mgrwt>
</event>
<event>
13    1  0.2101801E-008  0.6574566E+02  0.7546771E-02  0.1385121E+00
          2   -1    0    0  502    0  0.00000000000E+00  0.00000000000E+00  0.15398246113E+04  0.15398246113E+04  0.00000000000E+00 0. -1.
          2   -1    0    0  503    0 -0.00000000000E+00 -0.00000000000E+00 -0.10944530577E+04  0.10944530577E+04  0.00000000000E+00 0. -1.
         24    2    1    2    0    0 -0.46851401792E+02  0.11075628244E+02 -0.25724433344E+03  0.27342040715E+03  0.79160271410E+02 0.  0.
         25    2    1    2    0    0  0.68355215279E+02  0.15842872240E+03  0.15929627179E+03  0.26603140578E+03  0.12500124447E+03 0.  0.
         24    2    1    2    0    0  0.10467588256E+02 -0.14240847720E+03  0.53993049660E+03  0.56589456411E+03  0.91224841763E+02 0.  0.
        -11    1    3    3    0    0 -0.88013617984E+01 -0.25171206013E+02 -0.16597270072E+03  0.16810113315E+03  0.00000000000E+00 0.  1.
         12    1    3    3    0    0 -0.38050039994E+02  0.36246834257E+02 -0.91271632717E+02  0.10531927400E+03  0.00000000000E+00 0. -1.
        -11    1    5    5    0    0 -0.14178843026E+02 -0.33056971011E+00  0.14083030502E+03  0.14154265674E+03  0.00000000000E+00 0.  1.
         12    1    5    5    0    0  0.24646431283E+02 -0.14207790749E+03  0.39910019158E+03  0.42435190737E+03  0.00000000000E+00 0. -1.
          5    1    4    4  501    0 -0.34827516637E+02  0.31432507005E+02  0.20501480194E+02  0.51413608139E+02  0.47000000000E+01 0. -1.
         -5    1    4    4    0  501  0.10318273192E+03  0.12699621540E+03  0.13879479159E+03  0.21461779764E+03  0.47000000000E+01 0. -1.
          1    1    1    2  502    0  0.28275263780E+02 -0.53634486358E+02  0.76353573057E+03  0.76593926687E+03  0.00000000000E+00 0. -1.
          1    1    1    2  503    0 -0.60246665522E+02  0.26538612909E+02 -0.76014661197E+03  0.76299202511E+03  0.00000000000E+00 0. -1.
<mgrwt>
<rscale>  0 0.63136691E+02</rscale>
<asrwt>0</asrwt>
<pdfrwt beam="1">  1        2 0.22644480E+00 0.60631252E+02</pdfrwt>
<pdfrwt beam="2">  1        2 0.16094898E+00 0.65745662E+02</pdfrwt>
<totfact> 0.66002588E+01</totfact>
</mgrwt>
</event>
<event>
13    1  0.2101801E-008  0.1349666E+03  0.7546771E-02  0.1223996E+00
          2   -1    0    0  503    0  0.00000000000E+00  0.00000000000E+00  0.18531638310E+04  0.18531638310E+04  0.00000000000E+00 0. -1.
         -1   -1    0    0    0  501 -0.00000000000E+00 -0.00000000000E+00 -0.12384593182E+04  0.12384593182E+04  0.00000000000E+00 0.  1.
         24    2    1    2    0    0  0.78986099102E+02  0.33808310809E+02 -0.19244713002E+03  0.22575593859E+03  0.80919961837E+02 0.  0.
         25    2    1    2    0    0  0.71041425698E+02 -0.40533782622E+03 -0.24320226725E+03  0.49408191314E+03  0.12499582621E+03 0.  0.
         24    2    1    2    0    0  0.16199220260E+02  0.17040440597E+03 -0.14546470558E+03  0.23815072969E+03  0.79093066531E+02 0.  0.
        -11    1    5    5    0    0 -0.24638247815E+01 -0.45773820264E+01  0.45527930474E+01  0.69101941580E+01  0.00000000000E+00 0.  1.
         12    1    5    5    0    0  0.18663045042E+02  0.17498178799E+03 -0.15001749863E+03  0.23124053553E+03  0.00000000000E+00 0. -1.
        -13    1    3    3    0    0 -0.42507316529E+00 -0.21338716173E+02 -0.34974384169E+02  0.40972296044E+02  0.00000000000E+00 0.  1.
         14    1    3    3    0    0  0.79411172267E+02  0.55147026983E+02 -0.15747274585E+03  0.18478364254E+03  0.00000000000E+00 0. -1.
          5    1    4    4  502    0 -0.31263477218E+02 -0.14305448545E+03 -0.10621816804E+03  0.18095960885E+03  0.47000000000E+01 0. -1.
         -5    1    4    4    0  502  0.10230490292E+03 -0.26228334077E+03 -0.13698409921E+03  0.31312230429E+03  0.47000000000E+01 0. -1.
          1    1    1    2  503    0 -0.10730637545E+03  0.73237727605E+02  0.16515470415E+04  0.16566490434E+04  0.00000000000E+00 0. -1.
         -2    1    1    2    0  501 -0.58920369613E+02  0.12788738184E+03 -0.45572842578E+03  0.47698552437E+03  0.00000000000E+00 0.  1.
<mgrwt>
<rscale>  0 0.13235947E+03</rscale>
<asrwt>0</asrwt>
<pdfrwt beam="1">  1        2 0.27252410E+00 0.12980266E+03</pdfrwt>
<pdfrwt beam="2">  1       -1 0.18212637E+00 0.13496664E+03</pdfrwt>
<totfact> 0.28352269E+00</totfact>
</mgrwt>
</event>
<event>
13    1  0.2101801E-008  0.1451579E+03  0.7546771E-02  0.1213249E+00
          2   -1    0    0  503    0  0.00000000000E+00  0.00000000000E+00  0.39950453797E+04  0.39950453797E+04  0.00000000000E+00 0. -1.
          2   -1    0    0  502    0 -0.00000000000E+00 -0.00000000000E+00 -0.36483041175E+04  0.36483041175E+04  0.00000000000E+00 0. -1.
         24    2    1    2    0    0 -0.18344556061E+02 -0.12364708126E+01 -0.21037604191E+03  0.22639069608E+03  0.81588091449E+02 0.  0.
         25    2    1    2    0    0 -0.21213107631E+03  0.18469123796E+03  0.18137700423E+03  0.35725514696E+03  0.12499270160E+03 0.  0.
         24    2    1    2    0    0  0.41800187459E+02 -0.68268159697E+01  0.12194538318E+03  0.14100459058E+03  0.56725276538E+02 0.  0.
        -11    1    3    3    0    0 -0.27943279764E+02 -0.23092261690E+02 -0.38558672465E+02  0.52923063557E+02  0.00000000000E+00 0.  1.
         12    1    3    3    0    0  0.95987237028E+01  0.21855790878E+02 -0.17181736944E+03  0.17346763252E+03  0.00000000000E+00 0. -1.
        -11    1    5    5    0    0  0.15942186853E+02  0.25059282812E+02  0.48886786001E+02  0.57201737930E+02  0.00000000000E+00 0.  1.
         12    1    5    5    0    0  0.25858000606E+02 -0.31886098781E+02  0.73058597182E+02  0.83802852654E+02  0.00000000000E+00 0. -1.
          5    1    4    4  501    0 -0.25266347749E+02  0.84853083530E+02  0.19994883389E+02  0.90886299709E+02  0.47000000000E+01 0.  1.
         -5    1    4    4    0  501 -0.18686472856E+03  0.99838154428E+02  0.16138212084E+03  0.26636884725E+03  0.47000000000E+01 0.  1.
          1    1    1    2  502    0  0.25475267127E+03  0.86599825006E+02 -0.33218700091E+04  0.33327494371E+04  0.00000000000E+00 0. -1.
          1    1    1    2  503    0 -0.66077226353E+02 -0.26322777618E+03  0.35756649258E+04  0.35859496265E+04  0.00000000000E+00 0. -1.
<mgrwt>
<rscale>  0 0.14005970E+03</rscale>
<asrwt>0</asrwt>
<pdfrwt beam="1">  1        2 0.58750667E+00 0.13514060E+03</pdfrwt>
<pdfrwt beam="2">  1        2 0.53651531E+00 0.14515786E+03</pdfrwt>
<totfact> 0.12621936E-01</totfact>
</mgrwt>
</event>
<event>
13    1  0.2101801E-008  0.5493763E+02  0.7546771E-02  0.1425175E+00
          2   -1    0    0  503    0  0.00000000000E+00  0.00000000000E+00  0.12945794418E+04  0.12945794418E+04  0.00000000000E+00 0. -1.
          2   -1    0    0  502    0 -0.00000000000E+00 -0.00000000000E+00 -0.10748272815E+04  0.10748272815E+04  0.00000000000E+00 0. -1.
         24    2    1    2    0    0 -0.76547557883E+02  0.29849167614E+01 -0.37282571377E+03  0.38913399246E+03  0.80980324113E+02 0.  0.
         25    2    1    2    0    0  0.52937908562E+02  0.56275134119E+02 -0.74925468416E+02  0.16495184505E+03  0.12500388988E+03 0.  0.
         24    2    1    2    0    0  0.71199020437E+02 -0.80316088401E+02 -0.91227098094E+02  0.16065127628E+03  0.77242958112E+02 0.  0.
        -11    1    5    5    0    0  0.66978980539E+02 -0.90311707784E+02 -0.59690019758E+02  0.12729998765E+03  0.00000000000E+00 0.  1.
         12    1    5    5    0    0  0.42200398977E+01  0.99956193832E+01 -0.31537078336E+02  0.33351288635E+02  0.00000000000E+00 0. -1.
        -11    1    3    3    0    0 -0.35889779244E+02 -0.12972962200E+02 -0.47698820039E+02  0.61086425951E+02  0.00000000000E+00 0.  1.
         12    1    3    3    0    0 -0.40657778640E+02  0.15957878961E+02 -0.32512689373E+03  0.32804756651E+03  0.00000000000E+00 0. -1.
          5    1    4    4  501    0  0.26338025713E+02 -0.30496461208E+02  0.86561355640E+01  0.41481856607E+02  0.47000000000E+01 0.  1.
         -5    1    4    4    0  501  0.26599882850E+02  0.86771595327E+02 -0.83581603980E+02  0.12346998845E+03  0.47000000000E+01 0.  1.
          1    1    1    2  502    0 -0.69688735674E+01  0.55040825756E+02 -0.44566760928E+03  0.44910764373E+03  0.00000000000E+00 0. -1.
          1    1    1    2  503    0 -0.40620497548E+02 -0.33984788236E+02  0.12043980499E+04  0.12055619657E+04  0.00000000000E+00 0. -1.
<mgrwt>
<rscale>  0 0.53940852E+02</rscale>
<asrwt>0</asrwt>
<pdfrwt beam="1">  1        2 0.19037933E+00 0.52962162E+02</pdfrwt>
<pdfrwt beam="2">  1        2 0.15806284E+00 0.54937627E+02</pdfrwt>
<totfact> 0.90923970E+01</totfact>
</mgrwt>
</event>
<event>
13    1  0.2101801E-008  0.1191262E+03  0.7546771E-02  0.1261244E+00
          2   -1    0    0  503    0  0.00000000000E+00  0.00000000000E+00  0.71145394190E+03  0.71145394190E+03  0.00000000000E+00 0. -1.
          2   -1    0    0  502    0 -0.00000000000E+00 -0.00000000000E+00 -0.16572409617E+04  0.16572409617E+04  0.00000000000E+00 0. -1.
         24    2    1    2    0    0 -0.15785317125E+02 -0.40812361666E+02 -0.76194064982E+03  0.76751263659E+03  0.81285105460E+02 0.  0.
         25    2    1    2    0    0  0.11463068605E+03  0.13032143866E+03 -0.48009255633E+02  0.21921380007E+03  0.12500371978E+03 0.  0.
         24    2    1    2    0    0  0.13455948141E+02 -0.70093055716E+01 -0.59955763759E+02  0.10262418463E+03  0.81895279213E+02 0.  0.
        -13    1    3    3    0    0  0.16960965624E+02  0.17420321770E+02 -0.15326590459E+03  0.15518240711E+03  0.00000000000E+00 0.  1.
         14    1    3    3    0    0 -0.32746282749E+02 -0.58232683437E+02 -0.60867474523E+03  0.61233022948E+03  0.00000000000E+00 0. -1.
        -13    1    5    5    0    0  0.76118885342E+01  0.36884523748E+02 -0.18475681210E+02  0.41949490287E+02  0.00000000000E+00 0.  1.
         14    1    5    5    0    0  0.58440596070E+01 -0.43893829319E+02 -0.41480082549E+02  0.60674694340E+02  0.00000000000E+00 0. -1.
          5    1    4    4  501    0 -0.86387762429E+01 -0.14640340729E+02  0.99370556878E+01  0.20243594231E+02  0.47000000000E+01 0.  1.
         -5    1    4    4    0  501  0.12326946229E+03  0.14496177939E+03 -0.57946311321E+02  0.19897020584E+03  0.47000000000E+01 0.  1.
          1    1    1    2  502    0 -0.12724045716E+03  0.15583829473E+02 -0.66738122953E+03  0.67958126461E+03  0.00000000000E+00 0. -1.
          1    1    1    2  503    0  0.14939140093E+02 -0.98083600891E+02  0.59149987892E+03  0.59976301772E+03  0.00000000000E+00 0. -1.
<mgrwt>
<rscale>  0 0.10963655E+03</rscale>
<asrwt>0</asrwt>
<pdfrwt beam="1">  1        2 0.10462558E+00 0.11912620E+03</pdfrwt>
<pdfrwt beam="2">  1        2 0.24371191E+00 0.10090285E+03</pdfrwt>
<totfact> 0.92845204E+01</totfact>
</mgrwt>
</event>
<event>
13    1  0.2101801E-008  0.5387514E+02  0.7546771E-02  0.1433780E+00
          2   -1    0    0  503    0  0.00000000000E+00  0.00000000000E+00  0.13939902705E+04  0.13939902705E+04  0.00000000000E+00 0. -1.
          2   -1    0    0  502    0 -0.00000000000E+00 -0.00000000000E+00 -0.50869527007E+03  0.50869527007E+03  0.00000000000E+00 0. -1.
         24    2    1    2    0    0  0.26419649738E+03  0.18934994840E+02 -0.19726755713E+03  0.34053446892E+03  0.83011518304E+02 0.  0.
         25    2    1    2    0    0 -0.23592329925E+03  0.53898710407E+02  0.49861020518E+03  0.56815719431E+03  0.12500234648E+03 0.  0.
         24    2    1    2    0    0 -0.43620034700E+02 -0.33099613835E+02  0.19178352100E+02  0.10017258410E+03  0.81660550777E+02 0.  0.
        -11    1    3    3    0    0  0.17822841824E+03 -0.24085780403E+02 -0.11082016857E+03  0.21125009739E+03  0.00000000000E+00 0.  1.
         12    1    3    3    0    0  0.85968079142E+02  0.43020775243E+02 -0.86447388559E+02  0.12928437153E+03  0.00000000000E+00 0. -1.
        -13    1    5    5    0    0  0.94759985887E+01 -0.39035071300E+02  0.23556887175E+02  0.46566707786E+02  0.00000000000E+00 0.  1.
         14    1    5    5    0    0 -0.53096033288E+02  0.59354574643E+01 -0.43785350745E+01  0.53605876316E+02  0.00000000000E+00 0. -1.
          5    1    4    4  501    0 -0.18779890104E+03  0.90366111002E+02  0.42032683424E+03  0.46918141356E+03  0.47000000000E+01 0. -1.
         -5    1    4    4    0  501 -0.48124398214E+02 -0.36467400595E+02  0.78283370938E+02  0.98975780750E+02  0.47000000000E+01 0. -1.
          1    1    1    2  502    0  0.53682707047E+02 -0.67174257146E+01 -0.15916914661E+03  0.16811238526E+03  0.00000000000E+00 0. -1.
          1    1    1    2  503    0 -0.38335870478E+02 -0.33016665698E+02  0.72394314694E+03  0.72570890802E+03  0.00000000000E+00 0. -1.
<mgrwt>
<rscale>  0 0.52208732E+02</rscale>
<asrwt>0</asrwt>
<pdfrwt beam="1">  1        2 0.20499857E+00 0.50593865E+02</pdfrwt>
<pdfrwt beam="2">  1        2 0.74808128E-01 0.53875142E+02</pdfrwt>
<totfact> 0.19400152E+02</totfact>
</mgrwt>
</event>
<event>
13    1  0.2101801E-008  0.4804587E+02  0.7546771E-02  0.1518092E+00
          2   -1    0    0  502    0  0.00000000000E+00  0.00000000000E+00  0.16231931892E+04  0.16231931892E+04  0.00000000000E+00 0. -1.
          2   -1    0    0  503    0 -0.00000000000E+00 -0.00000000000E+00 -0.12623823024E+04  0.12623823024E+04  0.00000000000E+00 0. -1.
         24    2    1    2    0    0  0.18602648239E+02  0.94285217522E+02 -0.35603186838E+03  0.37740764820E+03  0.80262574421E+02 0.  0.
         25    2    1    2    0    0 -0.44107332564E+02 -0.12737487730E+03  0.77193177704E+03  0.79351990818E+03  0.12500144050E+03 0.  0.
         24    2    1    2    0    0 -0.23841418035E+02 -0.18109416260E+02 -0.13985622026E+03  0.16419225525E+03  0.80640995591E+02 0.  0.
        -13    1    3    3    0    0  0.95330223762E+01  0.75452786685E+00 -0.40091054309E+00  0.95712359281E+01  0.00000000000E+00 0.  1.
         14    1    3    3    0    0  0.90696258623E+01  0.93530689655E+02 -0.35563095784E+03  0.36783641228E+03  0.00000000000E+00 0. -1.
        -13    1    5    5    0    0 -0.42566444571E+02 -0.21266709354E+02 -0.13695107542E+03  0.14498197194E+03  0.00000000000E+00 0.  1.
         14    1    5    5    0    0  0.18725026536E+02  0.31572930939E+01 -0.29051448411E+01  0.19210283314E+02  0.00000000000E+00 0. -1.
          5    1    4    4  501    0 -0.31524250818E+02 -0.14778703709E+03  0.55524443549E+03  0.57545917307E+03  0.47000000000E+01 0. -1.
         -5    1    4    4    0  501 -0.12583081746E+02  0.20412159787E+02  0.21668734154E+03  0.21806073511E+03  0.47000000000E+01 0. -1.
          1    1    1    2  502    0  0.59716561092E+01  0.30575660450E+02  0.81652718705E+03  0.81712127551E+03  0.00000000000E+00 0. -1.
          1    1    1    2  503    0  0.43374446251E+02  0.20623415592E+02 -0.73175998858E+03  0.73333440444E+03  0.00000000000E+00 0. -1.
<mgrwt>
<rscale>  0 0.38688373E+02</rscale>
<asrwt>0</asrwt>
<pdfrwt beam="1">  1        2 0.23870488E+00 0.31153358E+02</pdfrwt>
<pdfrwt beam="2">  1        2 0.18564446E+00 0.48045871E+02</pdfrwt>
<totfact> 0.53396941E+01</totfact>
</mgrwt>
</event>
<event>
13    1  0.2101801E-008  0.1322448E+03  0.7546771E-02  0.1381154E+00
          2   -1    0    0  502    0  0.00000000000E+00  0.00000000000E+00  0.18425810519E+04  0.18425810519E+04  0.00000000000E+00 0. -1.
          2   -1    0    0  503    0 -0.00000000000E+00 -0.00000000000E+00 -0.10488169613E+04  0.10488169613E+04  0.00000000000E+00 0. -1.
         24    2    1    2    0    0 -0.65395654625E+02 -0.56641009923E+02 -0.18921554347E+03  0.22330341131E+03  0.81099296952E+02 0.  0.
         25    2    1    2    0    0 -0.51881210332E+02 -0.23715465491E+02 -0.44138872555E+02  0.14431162728E+03  0.12499408949E+03 0.  0.
         24    2    1    2    0    0 -0.10300003264E+03  0.96781287591E+02  0.12675393981E+02  0.15687558656E+03  0.66885422136E+02 0.  0.
        -11    1    3    3    0    0 -0.17739474131E+02  0.14532959418E+02 -0.86859531939E+02  0.89835817693E+02  0.00000000000E+00 0.  1.
         12    1    3    3    0    0 -0.47656180494E+02 -0.71173969342E+02 -0.10235601153E+03  0.13346759362E+03  0.00000000000E+00 0. -1.
        -13    1    5    5    0    0 -0.86199674634E+02  0.69491530190E+02 -0.18394704474E+02  0.11224001883E+03  0.00000000000E+00 0.  1.
         14    1    5    5    0    0 -0.16800358003E+02  0.27289757401E+02  0.31070098455E+02  0.44635567724E+02  0.00000000000E+00 0. -1.
          5    1    4    4  501    0 -0.12536050199E+02  0.34780000923E+02 -0.61175741252E+02  0.71633528019E+02  0.47000000000E+01 0.  1.
         -5    1    4    4    0  501 -0.39345160133E+02 -0.58495466414E+02  0.17036868697E+02  0.72678099259E+02  0.47000000000E+01 0.  1.
          1    1    1    2  502    0  0.30571346244E+02  0.58673936987E+01  0.16770395323E+04  0.16773284194E+04  0.00000000000E+00 0. -1.
          1    1    1    2  503    0  0.18970555135E+03 -0.22292205875E+02 -0.66259641971E+03  0.68957896869E+03  0.00000000000E+00 0. -1.
<mgrwt>
<rscale>  0 0.64161421E+02</rscale>
<asrwt>0</asrwt>
<pdfrwt beam="1">  1        2 0.27096780E+00 0.31129303E+02</pdfrwt>
<pdfrwt beam="2">  1        2 0.15423779E+00 0.13224478E+03</pdfrwt>
<totfact> 0.52003777E+01</totfact>
</mgrwt>
</event>
<event>
13    1  0.2101801E-008  0.2255617E+03  0.7546771E-02  0.1218159E+00
          2   -1    0    0  502    0  0.00000000000E+00  0.00000000000E+00  0.24111275576E+04  0.24111275576E+04  0.00000000000E+00 0. -1.
          2   -1    0    0  503    0 -0.00000000000E+00 -0.00000000000E+00 -0.44136635926E+03  0.44136635926E+03  0.00000000000E+00 0. -1.
         24    2    1    2    0    0  0.22534628185E+03 -0.39315126476E+03  0.47138180134E+02  0.46784111057E+03  0.10632230707E+03 0.  0.
         25    2    1    2    0    0 -0.98416808249E+02  0.16983006302E+03  0.49783938965E+03  0.54954085660E+03  0.12499190670E+03 0.  0.
         24    2    1    2    0    0 -0.66129784273E+02 -0.73987701450E+01  0.37780572342E+03  0.39201834629E+03  0.80705198166E+02 0.  0.
        -11    1    5    5    0    0  0.96388070951E+01 -0.24801401923E+02  0.10860197250E+03  0.11181415192E+03  0.00000000000E+00 0.  1.
         12    1    5    5    0    0 -0.75768591368E+02  0.17402631778E+02  0.26920375093E+03  0.28020419437E+03  0.00000000000E+00 0. -1.
        -13    1    3    3    0    0  0.84818993361E+02 -0.24592641941E+03  0.46775292469E+02  0.26431419444E+03  0.00000000000E+00 0.  1.
         14    1    3    3    0    0  0.14052728849E+03 -0.14722484536E+03  0.36288766463E+00  0.20352691612E+03  0.00000000000E+00 0. -1.
          5    1    4    4  501    0 -0.26562254546E+02  0.53409330316E+02  0.40749183843E+02  0.72392650975E+02  0.47000000000E+01 0.  1.
         -5    1    4    4    0  501 -0.71854553703E+02  0.11642073271E+03  0.45709020580E+03  0.47714820563E+03  0.47000000000E+01 0.  1.
          1    1    1    2  502    0  0.67197549629E+02  0.47978598087E+02  0.11803003328E+04  0.11831848259E+04  0.00000000000E+00 0. -1.
          1    1    1    2  503    0 -0.12799723896E+03  0.18274137380E+03 -0.13332242771E+03  0.25990877748E+03  0.00000000000E+00 0. -1.
<mgrwt>
<rscale>  0 0.13647033E+03</rscale>
<asrwt>0</asrwt>
<pdfrwt beam="1">  1        2 0.35457758E+00 0.82567891E+02</pdfrwt>
<pdfrwt beam="2">  1        2 0.64906818E-01 0.22556168E+03</pdfrwt>
<totfact> 0.69379630E+01</totfact>
</mgrwt>
</event>
<event>
13    1  0.2101801E-008  0.7484285E+02  0.7546771E-02  0.1490339E+00
          2   -1    0    0  502    0  0.00000000000E+00  0.00000000000E+00  0.12898759197E+04  0.12898759197E+04  0.00000000000E+00 0. -1.
          2   -1    0    0  503    0 -0.00000000000E+00 -0.00000000000E+00 -0.10697085993E+04  0.10697085993E+04  0.00000000000E+00 0. -1.
         24    2    1    2    0    0 -0.15812288259E+03  0.26296827358E+02 -0.28399178861E+03  0.33571901338E+03  0.79759330627E+02 0.  0.
         25    2    1    2    0    0  0.27195666634E+03  0.11068432316E+03  0.75638509967E+03  0.82094727577E+03  0.12499825133E+03 0.  0.
         24    2    1    2    0    0 -0.99486938209E+02 -0.56752040549E+02 -0.24679830248E+03  0.28345210149E+03  0.79481109412E+02 0.  0.
        -11    1    5    5    0    0  0.94495120765E+01  0.38522213745E+01 -0.48957573146E+01  0.11318185706E+02  0.00000000000E+00 0.  1.
         12    1    5    5    0    0 -0.10893645029E+03 -0.60604261923E+02 -0.24190254517E+03  0.27213391579E+03  0.00000000000E+00 0. -1.
        -11    1    3    3    0    0 -0.16323989454E+03  0.36680480652E+02 -0.26884951690E+03  0.31665878098E+03  0.00000000000E+00 0.  1.
         12    1    3    3    0    0  0.51170119492E+01 -0.10383653294E+02 -0.15142271706E+02  0.19060232408E+02  0.00000000000E+00 0. -1.
          5    1    4    4  501    0 -0.10268183174E+02 -0.70182769738E+01  0.31549378331E+02  0.34236604249E+02  0.47000000000E+01 0. -1.
         -5    1    4    4    0  501  0.28222484951E+03  0.11770260014E+03  0.72483572134E+03  0.78671067152E+03  0.47000000000E+01 0. -1.
          1    1    1    2  502    0  0.90826785741E+01 -0.74274073705E+02  0.45363619413E+03  0.45976616850E+03  0.00000000000E+00 0. -1.
          1    1    1    2  503    0 -0.23429524117E+02 -0.59550362680E+01 -0.45906388234E+03  0.45969995989E+03  0.00000000000E+00 0. -1.
<mgrwt>
<rscale>  0 0.42535708E+02</rscale>
<asrwt>0</asrwt>
<pdfrwt beam="1">  1        2 0.18968763E+00 0.74842855E+02</pdfrwt>
<pdfrwt beam="2">  1        2 0.15731009E+00 0.24174471E+02</pdfrwt>
<totfact> 0.94076806E+01</totfact>
</mgrwt>
</event>
<event>
13    1  0.2101801E-008  0.1778967E+03  0.7546771E-02  0.1181029E+00
          2   -1    0    0  503    0  0.00000000000E+00  0.00000000000E+00  0.15096698558E+04  0.15096698558E+04  0.00000000000E+00 0. -1.
          2   -1    0    0  502    0 -0.00000000000E+00 -0.00000000000E+00 -0.14243861538E+04  0.14243861538E+04  0.00000000000E+00 0. -1.
         24    2    1    2    0    0  0.11026755816E+03 -0.14131669082E+03 -0.39069317548E+03  0.43683713077E+03  0.77821462123E+02 0.  0.
         25    2    1    2    0    0  0.67639771653E+02  0.26735202730E+03  0.40784419559E+03  0.50795326444E+03  0.12500954273E+03 0.  0.
         24    2    1    2    0    0  0.14205412660E+02  0.17845395129E+02 -0.63053824826E+01  0.74504959698E+02  0.70646863307E+02 0.  0.
        -11    1    5    5    0    0  0.42772566210E+02  0.11088092091E+02  0.12091833330E+01  0.44202944819E+02  0.00000000000E+00 0.  1.
         12    1    5    5    0    0 -0.28567153550E+02  0.67573030378E+01 -0.75145658156E+01  0.30302014878E+02  0.00000000000E+00 0. -1.
        -11    1    3    3    0    0  0.90723520898E+02 -0.12151198541E+03 -0.24217683391E+03  0.28573683473E+03  0.00000000000E+00 0.  1.
         12    1    3    3    0    0  0.19544037263E+02 -0.19804705414E+02 -0.14851634157E+03  0.15110029604E+03  0.00000000000E+00 0. -1.
          5    1    4    4  501    0  0.98812080559E+01  0.40145142158E+02  0.50970108743E+01  0.41920642068E+02  0.47000000000E+01 0. -1.
         -5    1    4    4    0  501  0.57758563598E+02  0.22720688514E+03  0.40274718471E+03  0.46603262237E+03  0.47000000000E+01 0. -1.
          1    1    1    2  502    0 -0.15315222926E+03 -0.31737155969E+03 -0.87788929525E+03  0.94597564818E+03  0.00000000000E+00 0. -1.
          1    1    1    2  503    0 -0.38960513217E+02  0.17349082809E+03  0.95232735958E+03  0.96878500650E+03  0.00000000000E+00 0. -1.
<mgrwt>
<rscale>  0 0.16698518E+03</rscale>
<asrwt>0</asrwt>
<pdfrwt beam="1">  1        2 0.22201027E+00 0.17789672E+03</pdfrwt>
<pdfrwt beam="2">  1        2 0.20946855E+00 0.15674291E+03</pdfrwt>
<totfact> 0.39952365E+01</totfact>
</mgrwt>
</event>
<event>
13    1  0.2101801E-008  0.7441605E+02  0.7546771E-02  0.1485338E+00
         -3   -1    0    0    0  501 -0.00000000000E+00  0.00000000000E+00  0.14995324707E+04  0.14995324707E+04  0.00000000000E+00 0.  1.
          2   -1    0    0  503    0  0.00000000000E+00 -0.00000000000E+00 -0.33568648147E+03  0.33568648147E+03  0.00000000000E+00 0. -1.
         24    2    1    2    0    0  0.21361004153E+03  0.10634724338E+03  0.72114846796E+03  0.76386449029E+03  0.80590698370E+02 0.  0.
         25    2    1    2    0    0 -0.13289771645E+03 -0.28446693785E+02 -0.13309014872E+03  0.22761179588E+03  0.12499249783E+03 0.  0.
         24    2    1    2    0    0 -0.79591855235E+01 -0.74861106794E+02  0.98231947185E+02  0.14922942307E+03  0.83380881012E+02 0.  0.
        -13    1    3    3    0    0 -0.57437905585E+01  0.11515223205E+02  0.38857590750E+02  0.40932918957E+02  0.00000000000E+00 0.  1.
         14    1    3    3    0    0  0.21935383209E+03  0.94832020177E+02  0.68229087721E+03  0.72293157133E+03  0.00000000000E+00 0. -1.
        -13    1    5    5    0    0 -0.21072049494E+02  0.74119466333E+01  0.45346675709E+02  0.50549868652E+02  0.00000000000E+00 0.  1.
         14    1    5    5    0    0  0.13112863971E+02 -0.82273053427E+02  0.52885271475E+02  0.98679554421E+02  0.00000000000E+00 0. -1.
          5    1    4    4  502    0 -0.53402286156E+02  0.18713758465E+02  0.95480552932E+01  0.57578331710E+02  0.47000000000E+01 0. -1.
         -5    1    4    4    0  502 -0.79495430291E+02 -0.47160452250E+02 -0.14263820402E+03  0.17003346417E+03  0.47000000000E+01 0. -1.
          1    1    1    2  503    0 -0.16266316979E+01 -0.25125115549E+02 -0.10461290168E+03  0.10760007695E+03  0.00000000000E+00 0. -1.
         -4    1    1    2    0  501 -0.71126507858E+02  0.22085672747E+02  0.58216862453E+03  0.58691316602E+03  0.00000000000E+00 0.  1.
<mgrwt>
<rscale>  0 0.43285402E+02</rscale>
<asrwt>0</asrwt>
<pdfrwt beam="2">  1        2 0.49365660E-01 0.25177716E+02</pdfrwt>
<pdfrwt beam="1">  1       -3 0.22051948E+00 0.74416047E+02</pdfrwt>
<totfact> 0.77993060E+00</totfact>
</mgrwt>
</event>
<event>
13    1  0.2101801E-008  0.1624466E+03  0.7546771E-02  0.1302991E+00
         -1   -1    0    0    0  501 -0.00000000000E+00  0.00000000000E+00  0.15473966586E+04  0.15473966586E+04  0.00000000000E+00 0.  1.
          2   -1    0    0  503    0  0.00000000000E+00 -0.00000000000E+00 -0.24959080350E+04  0.24959080350E+04  0.00000000000E+00 0. -1.
         24    2    1    2    0    0 -0.32554958848E+02 -0.95554400642E+02  0.33473266771E+03  0.35854131333E+03  0.79469778525E+02 0.  0.
         25    2    1    2    0    0  0.12781813911E+03  0.22203218005E+03 -0.57046173607E+03  0.63771773467E+03  0.12498620372E+03 0.  0.
         24    2    1    2    0    0  0.94090154056E+01 -0.11290752441E+03  0.94695519146E+02  0.16838959002E+03  0.80939323210E+02 0.  0.
        -13    1    5    5    0    0  0.70705998319E+01 -0.96983634326E+02  0.10955386888E+03  0.14648504666E+03  0.00000000000E+00 0.  1.
         14    1    5    5    0    0  0.23384155737E+01 -0.15923890089E+02 -0.14858349736E+02  0.21904543361E+02  0.00000000000E+00 0. -1.
        -13    1    3    3    0    0 -0.53777983024E+02 -0.83089726992E+02  0.30049368979E+03  0.31637387976E+03  0.00000000000E+00 0.  1.
         14    1    3    3    0    0  0.21223024177E+02 -0.12464673650E+02  0.34238977927E+02  0.42167433570E+02  0.00000000000E+00 0. -1.
          5    1    4    4  502    0  0.30973932790E+02  0.61959467465E+01 -0.16671327372E+03  0.16974445470E+03  0.47000000000E+01 0. -1.
         -5    1    4    4    0  502  0.96844206325E+02  0.21583623331E+03 -0.40374846235E+03  0.46797327996E+03  0.47000000000E+01 0. -1.
          1    1    1    2  503    0  0.49767027836E+02 -0.17753535679E+01 -0.18369360767E+04  0.18376109650E+04  0.00000000000E+00 0. -1.
         -2    1    1    2    0  501 -0.15443922351E+03 -0.11794901428E+02  0.10294582494E+04  0.10410450907E+04  0.00000000000E+00 0.  1.
<mgrwt>
<rscale>  0 0.89942357E+02</rscale>
<asrwt>0</asrwt>
<pdfrwt beam="2">  1        2 0.36704530E+00 0.49798684E+02</pdfrwt>
<pdfrwt beam="1">  1       -1 0.22755833E+00 0.16244661E+03</pdfrwt>
<totfact> 0.77109480E-01</totfact>
</mgrwt>
</event>
<event>
13    1  0.2101801E-008  0.4307610E+02  0.7546771E-02  0.1577930E+00
          2   -1    0    0  503    0  0.00000000000E+00  0.00000000000E+00  0.10147695163E+03  0.10147695163E+03  0.00000000000E+00 0. -1.
          2   -1    0    0  502    0 -0.00000000000E+00 -0.00000000000E+00 -0.15037909253E+04  0.15037909253E+04  0.00000000000E+00 0. -1.
         24    2    1    2    0    0  0.31333044639E+02  0.98745386907E+02 -0.33287047172E+03  0.35807402863E+03  0.81742571013E+02 0.  0.
         25    2    1    2    0    0  0.43534745100E+02 -0.32165731865E+01 -0.13347662329E+03  0.18798550645E+03  0.12496768100E+03 0.  0.
         24    2    1    2    0    0 -0.10511798231E+03 -0.13312193298E+03 -0.32348364111E+03  0.37474155281E+03  0.83775450407E+02 0.  0.
        -11    1    3    3    0    0 -0.45122517054E+01  0.62659083439E+02 -0.88891424662E+02  0.10884946730E+03  0.00000000000E+00 0.  1.
         12    1    3    3    0    0  0.35845296345E+02  0.36086303468E+02 -0.24397904706E+03  0.24922456134E+03  0.00000000000E+00 0. -1.
        -13    1    5    5    0    0 -0.76776369215E+02 -0.13972071898E+03 -0.26147643010E+03  0.30624567537E+03  0.00000000000E+00 0.  1.
         14    1    5    5    0    0 -0.28341613091E+02  0.65987860019E+01 -0.62007211012E+02  0.68495877444E+02  0.00000000000E+00 0. -1.
          5    1    4    4  501    0  0.65644996814E+02 -0.38472409871E+02 -0.41209475150E+02  0.86658541242E+02  0.47000000000E+01 0.  1.
         -5    1    4    4    0  501 -0.22110251714E+02  0.35255836684E+02 -0.92267148144E+02  0.10132696521E+03  0.47000000000E+01 0.  1.
          1    1    1    2  502    0  0.71313518748E+01  0.42491997072E+02 -0.64379651486E+03  0.64523668413E+03  0.00000000000E+00 0. -1.
          1    1    1    2  503    0  0.23118840692E+02 -0.48988778124E+01  0.31313277295E+02  0.39230104941E+02  0.00000000000E+00 0. -1.
<mgrwt>
<rscale>  0 0.31905830E+02</rscale>
<asrwt>0</asrwt>
<pdfrwt beam="1">  1        2 0.14923082E-01 0.23632177E+02</pdfrwt>
<pdfrwt beam="2">  1        2 0.22114572E+00 0.43076099E+02</pdfrwt>
<totfact> 0.90784254E+02</totfact>
</mgrwt>
</event>
<event>
13    1  0.2101801E-008  0.1134149E+03  0.7546771E-02  0.1413923E+00
          2   -1    0    0  502    0  0.00000000000E+00  0.00000000000E+00  0.28612669813E+04  0.28612669813E+04  0.00000000000E+00 0. -1.
          2   -1    0    0  503    0 -0.00000000000E+00 -0.00000000000E+00 -0.30262169463E+04  0.30262169463E+04  0.00000000000E+00 0. -1.
         24    2    1    2    0    0  0.51627884613E+02 -0.79176155286E+03 -0.17413094655E+04  0.19158363583E+04  0.93372920516E+02 0.  0.
         25    2    1    2    0    0  0.32014596217E+03  0.42040753736E+03 -0.86833252667E+02  0.54989930622E+03  0.12495318582E+03 0.  0.
         24    2    1    2    0    0 -0.32753897608E+03  0.26606716797E+03  0.14908023621E+03  0.45482850630E+03  0.81058834154E+02 0.  0.
        -11    1    5    5    0    0 -0.16603841098E+03  0.15764309868E+03  0.41974142880E+02  0.23277012083E+03  0.00000000000E+00 0.  1.
         12    1    5    5    0    0 -0.16150056510E+03  0.10842406929E+03  0.10710609333E+03  0.22205838547E+03  0.00000000000E+00 0. -1.
        -13    1    3    3    0    0  0.24393298981E+02 -0.54927495916E+03 -0.11020519466E+04  0.12315910469E+04  0.00000000000E+00 0.  1.
         14    1    3    3    0    0  0.27234585632E+02 -0.24248659370E+03 -0.63925751883E+03  0.68424531139E+03  0.00000000000E+00 0. -1.
          5    1    4    4  501    0  0.23789589624E+03  0.38214996748E+03 -0.89691608007E+02  0.45902040220E+03  0.47000000000E+01 0.  1.
         -5    1    4    4    0  501  0.82250065936E+02  0.38257569877E+02  0.28583553402E+01  0.90878904013E+02  0.47000000000E+01 0.  1.
          1    1    1    2  502    0 -0.68102246722E+02  0.90694037477E+02  0.22388107812E+04  0.22416817434E+04  0.00000000000E+00 0. -1.
          1    1    1    2  503    0  0.23867376015E+02  0.14592810054E+02 -0.72469826433E+03  0.72523801339E+03  0.00000000000E+00 0. -1.
<mgrwt>
<rscale>  0 0.56327481E+02</rscale>
<asrwt>0</asrwt>
<pdfrwt beam="1">  1        2 0.42077456E+00 0.11341494E+03</pdfrwt>
<pdfrwt beam="2">  1        2 0.44503190E+00 0.27975020E+02</pdfrwt>
<totfact> 0.18223367E+00</totfact>
</mgrwt>
</event>
<event>
13    1  0.2101801E-008  0.5071217E+02  0.7546771E-02  0.1449220E+00
          2   -1    0    0  503    0  0.00000000000E+00  0.00000000000E+00  0.26769457034E+04  0.26769457034E+04  0.00000000000E+00 0. -1.
          2   -1    0    0  502    0 -0.00000000000E+00 -0.00000000000E+00 -0.42354301634E+04  0.42354301634E+04  0.00000000000E+00 0. -1.
         24    2    1    2    0    0 -0.34622870375E+03  0.80857962785E+03 -0.17611694247E+04  0.19700151587E+04  0.74610006990E+02 0.  0.
         25    2    1    2    0    0  0.11826743642E+04 -0.27310010406E+03  0.14511376443E+03  0.12288150105E+04  0.12500402792E+03 0.  0.
         24    2    1    2    0    0 -0.85788720713E+03 -0.54847245179E+03 -0.49092787401E+02  0.10219464082E+04  0.71915706756E+02 0.  0.
        -11    1    3    3    0    0 -0.18354187664E+03  0.36581382556E+03 -0.75638053469E+03  0.86001098174E+03  0.00000000000E+00 0.  1.
         12    1    3    3    0    0 -0.16268682711E+03  0.44276580230E+03 -0.10047888900E+04  0.11100041769E+04  0.00000000000E+00 0. -1.
        -13    1    5    5    0    0 -0.49299031219E+03 -0.27323805828E+03 -0.32582928985E+02  0.56458846222E+03  0.00000000000E+00 0.  1.
         14    1    5    5    0    0 -0.36489689494E+03 -0.27523439351E+03 -0.16509858416E+02  0.45735794596E+03  0.00000000000E+00 0. -1.
          5    1    4    4  501    0  0.88305151915E+03 -0.25707645151E+03  0.12303733210E+03  0.92791624756E+03  0.47000000000E+01 0.  1.
         -5    1    4    4    0  501  0.29962284501E+03 -0.16023652551E+02  0.22076432330E+02  0.30089876297E+03  0.47000000000E+01 0.  1.
          1    1    1    2  502    0  0.40033353855E+02 -0.31156148094E+02 -0.12915595436E+04  0.12925553875E+04  0.00000000000E+00 0. -1.
          1    1    1    2  503    0 -0.18591807134E+02  0.44149076084E+02  0.13982235312E+04  0.13990439019E+04  0.00000000000E+00 0. -1.
<mgrwt>
<rscale>  0 0.49288105E+02</rscale>
<asrwt>0</asrwt>
<pdfrwt beam="1">  1        2 0.39366849E+00 0.47904031E+02</pdfrwt>
<pdfrwt beam="2">  1        2 0.62285737E+00 0.50712168E+02</pdfrwt>
<totfact> 0.43748382E-01</totfact>
</mgrwt>
</event>
<event>
13    1  0.2101801E-008  0.6121265E+02  0.7546771E-02  0.1393712E+00
          2   -1    0    0  502    0  0.00000000000E+00  0.00000000000E+00  0.13912062617E+04  0.13912062617E+04  0.00000000000E+00 0. -1.
          2   -1    0    0  503    0 -0.00000000000E+00 -0.00000000000E+00 -0.84070896805E+03  0.84070896805E+03  0.00000000000E+00 0. -1.
         24    2    1    2    0    0  0.78254294274E+02  0.10318908140E+03 -0.35590577928E+03  0.38714451185E+03  0.80251032642E+02 0.  0.
         25    2    1    2    0    0 -0.11717724271E+02 -0.35293123022E+02  0.12262873745E+03  0.17901270137E+03  0.12499932164E+03 0.  0.
         24    2    1    2    0    0 -0.93048738393E+02 -0.75156980424E+02 -0.92404063266E+02  0.16922661971E+03  0.76108465289E+02 0.  0.
        -11    1    3    3    0    0  0.41571417565E+02  0.15777025579E+02 -0.50115995840E+02  0.66997838275E+02  0.00000000000E+00 0.  1.
         12    1    3    3    0    0  0.36682876709E+02  0.87412055823E+02 -0.30578978344E+03  0.32014667358E+03  0.00000000000E+00 0. -1.
        -13    1    5    5    0    0 -0.35669707180E+02 -0.72603571690E+02 -0.35381800073E+02  0.88292006483E+02  0.00000000000E+00 0.  1.
         14    1    5    5    0    0 -0.57379031214E+02 -0.25534087339E+01 -0.57022263193E+02  0.80934613231E+02  0.00000000000E+00 0. -1.
          5    1    4    4  501    0  0.27049767246E+01 -0.79135861617E+02  0.53198112134E+02  0.95508798692E+02  0.47000000000E+01 0. -1.
         -5    1    4    4    0  501 -0.14422700996E+02  0.43842738595E+02  0.69430625317E+02  0.83503902683E+02  0.47000000000E+01 0. -1.
          1    1    1    2  502    0  0.28260629260E+02 -0.54298486517E+02  0.11824985975E+04  0.11840818899E+04  0.00000000000E+00 0. -1.
          1    1    1    2  503    0 -0.17484608695E+01  0.61559508559E+02 -0.30632019877E+03  0.31244950694E+03  0.00000000000E+00 0. -1.
<mgrwt>
<rscale>  0 0.60992808E+02</rscale>
<asrwt>0</asrwt>
<pdfrwt beam="1">  1        2 0.20458916E+00 0.61212652E+02</pdfrwt>
<pdfrwt beam="2">  1        2 0.12363367E+00 0.60773753E+02</pdfrwt>
<totfact> 0.10937023E+02</totfact>
</mgrwt>
</event>
<event>
13    1  0.2101801E-008  0.3401429E+03  0.7546771E-02  0.1241422E+00
          2   -1    0    0  502    0  0.00000000000E+00  0.00000000000E+00  0.31211628498E+04  0.31211628498E+04  0.00000000000E+00 0. -1.
          2   -1    0    0  503    0 -0.00000000000E+00 -0.00000000000E+00 -0.51821321657E+03  0.51821321657E+03  0.00000000000E+00 0. -1.
         24    2    1    2    0    0  0.12334263017E+03 -0.28848164974E+03 -0.20587664843E+03  0.38385274155E+03  0.80763024788E+02 0.  0.
         25    2    1    2    0    0  0.44383562463E+03  0.20498626171E+03  0.91668674863E+03  0.10464044564E+04  0.12505303668E+03 0.  0.
         24    2    1    2    0    0 -0.23268014996E+03  0.17534070655E+03  0.33200192264E+03  0.44892508135E+03  0.80150087165E+02 0.  0.
        -11    1    5    5    0    0 -0.20117552895E+03  0.16422809601E+03  0.32275420490E+03  0.41426167787E+03  0.00000000000E+00 0.  1.
         12    1    5    5    0    0 -0.31504621009E+02  0.11112610541E+02  0.92477177401E+01  0.34663403488E+02  0.00000000000E+00 0. -1.
        -13    1    3    3    0    0 -0.68657412883E+01 -0.57148497113E+01 -0.18400051062E+02  0.20453845353E+02  0.00000000000E+00 0.  1.
         14    1    3    3    0    0  0.13020837146E+03 -0.28276680003E+03 -0.18747659737E+03  0.36339889620E+03  0.00000000000E+00 0. -1.
          5    1    4    4  501    0  0.10506609712E+03  0.10308003076E+03  0.21542104070E+03  0.26094576502E+03  0.47000000000E+01 0.  1.
         -5    1    4    4    0  501  0.33876952751E+03  0.10190623095E+03  0.70126570793E+03  0.78545869134E+03  0.47000000000E+01 0.  1.
          1    1    1    2  502    0 -0.31910287310E+02  0.28909920690E+02  0.13936699114E+04  0.13943349210E+04  0.00000000000E+00 0. -1.
          1    1    1    2  503    0 -0.30258781752E+03 -0.12075523921E+03  0.16646769897E+03  0.36585886611E+03  0.00000000000E+00 0. -1.
<mgrwt>
<rscale>  0 0.12102108E+03</rscale>
<asrwt>0</asrwt>
<pdfrwt beam="1">  1        2 0.45899453E+00 0.43058680E+02</pdfrwt>
<pdfrwt beam="2">  1        2 0.76207827E-01 0.34014285E+03</pdfrwt>
<totfact> 0.27990189E+01</totfact>
</mgrwt>
</event>
<event>
13    1  0.2101801E-008  0.9117283E+02  0.7546771E-02  0.1444008E+00
          2   -1    0    0  503    0  0.00000000000E+00  0.00000000000E+00  0.41406957238E+04  0.41406957238E+04  0.00000000000E+00 0. -1.
          2   -1    0    0  502    0 -0.00000000000E+00 -0.00000000000E+00 -0.56696488403E+03  0.56696488403E+03  0.00000000000E+00 0. -1.
         24    2    1    2    0    0  0.50331498215E+02 -0.17338672931E+02  0.13574102111E+03  0.16735779598E+03  0.82153014389E+02 0.  0.
         25    2    1    2    0    0 -0.15892901669E+03 -0.19785343292E+01  0.30236490375E+02  0.20446339484E+03  0.12501474927E+03 0.  0.
         24    2    1    2    0    0  0.30337957002E+02  0.26492503844E+02  0.15711410107E+03  0.18112197248E+03  0.80610692635E+02 0.  0.
        -11    1    3    3    0    0  0.98702886459E+01  0.31896189269E+02  0.36999184942E+02  0.49837026137E+02  0.00000000000E+00 0.  1.
         12    1    3    3    0    0  0.40461209569E+02 -0.49234862200E+02  0.98741836166E+02  0.11752076985E+03  0.00000000000E+00 0. -1.
        -13    1    5    5    0    0  0.54506814155E+02  0.17182171695E+02  0.13662772341E+03  0.14809913780E+03  0.00000000000E+00 0.  1.
         14    1    5    5    0    0 -0.24168857153E+02  0.93103321496E+01  0.20486377655E+02  0.33022834680E+02  0.00000000000E+00 0. -1.
          5    1    4    4  501    0 -0.55936566834E+02  0.77818229578E+01 -0.48324098391E+02  0.74476605475E+02  0.47000000000E+01 0.  1.
         -5    1    4    4    0  501 -0.10299244986E+03 -0.97603572870E+01  0.78560588766E+02  0.12998678936E+03  0.47000000000E+01 0.  1.
          1    1    1    2  502    0 -0.10960652398E+02 -0.25431964261E+02 -0.45105440336E+03  0.45190374583E+03  0.00000000000E+00 0. -1.
          1    1    1    2  503    0  0.89220213873E+02  0.18256667677E+02  0.37016936306E+04  0.37028136987E+04  0.00000000000E+00 0. -1.
<mgrwt>
<rscale>  0 0.50248181E+02</rscale>
<asrwt>0</asrwt>
<pdfrwt beam="1">  1        2 0.60892583E+00 0.91172835E+02</pdfrwt>
<pdfrwt beam="2">  1        2 0.83377191E-01 0.27693333E+02</pdfrwt>
<totfact> 0.55393380E+00</totfact>
</mgrwt>
</event>
<event>
13    1  0.2101801E-008  0.1465204E+03  0.7546771E-02  0.1376438E+00
          2   -1    0    0  502    0  0.00000000000E+00  0.00000000000E+00  0.39146688883E+04  0.39146688883E+04  0.00000000000E+00 0. -1.
          2   -1    0    0  503    0 -0.00000000000E+00 -0.00000000000E+00 -0.11692529738E+04  0.11692529738E+04  0.00000000000E+00 0. -1.
         24    2    1    2    0    0 -0.70396479100E+02 -0.56219675349E+02  0.12963566775E+03  0.17690693249E+03  0.79839465470E+02 0.  0.
         25    2    1    2    0    0  0.34458786161E+03  0.47562049703E+02  0.20659426538E+04  0.20987489681E+04  0.12500095702E+03 0.  0.
         24    2    1    2    0    0 -0.91962832221E+01  0.33897047195E+02 -0.75958233722E+02  0.11538180306E+03  0.79433782319E+02 0.  0.
        -11    1    3    3    0    0 -0.11369300188E+02 -0.51685017153E+02  0.93816217012E+02  0.10771297303E+03  0.00000000000E+00 0.  1.
         12    1    3    3    0    0 -0.59027178912E+02 -0.45346581963E+01  0.35819450735E+02  0.69193959463E+02  0.00000000000E+00 0. -1.
        -13    1    5    5    0    0  0.30326810005E+02  0.22442372310E+02 -0.12490306361E+02  0.39741454842E+02  0.00000000000E+00 0.  1.
         14    1    5    5    0    0 -0.39523093227E+02  0.11454674885E+02 -0.63467927361E+02  0.75640348218E+02  0.00000000000E+00 0. -1.
          5    1    4    4  501    0  0.29504562921E+03  0.29599430765E+02  0.19338040156E+04  0.19564120502E+04  0.47000000000E+01 0.  1.
         -5    1    4    4    0  501  0.49542232400E+02  0.17962618938E+02  0.13213863825E+03  0.14233691787E+03  0.47000000000E+01 0.  1.
          1    1    1    2  502    0 -0.28585566633E+02 -0.59581979817E+01  0.16455999526E+04  0.16458589972E+04  0.00000000000E+00 0. -1.
          1    1    1    2  503    0 -0.23640953266E+03 -0.19281223568E+02 -0.10198041260E+04  0.10470251612E+04  0.00000000000E+00 0. -1.
<mgrwt>
<rscale>  0 0.65409339E+02</rscale>
<asrwt>0</asrwt>
<pdfrwt beam="1">  1        2 0.57568660E+00 0.29199910E+02</pdfrwt>
<pdfrwt beam="2">  1        2 0.17194897E+00 0.14652037E+03</pdfrwt>
<totfact> 0.39805202E+00</totfact>
</mgrwt>
</event>
<event>
13    1  0.2101801E-008  0.1004462E+03  0.7546771E-02  0.1357310E+00
          2   -1    0    0  502    0  0.00000000000E+00  0.00000000000E+00  0.93428257640E+03  0.93428257640E+03  0.00000000000E+00 0. -1.
          2   -1    0    0  503    0 -0.00000000000E+00 -0.00000000000E+00 -0.34984028015E+04  0.34984028015E+04  0.00000000000E+00 0. -1.
         24    2    1    2    0    0 -0.14066959388E+03 -0.63159199960E+02 -0.13163026784E+04  0.13277651320E+04  0.80811420066E+02 0.  0.
         25    2    1    2    0    0  0.16971043752E+03 -0.11762764638E+02 -0.24020967434E+03  0.31979204035E+03  0.12500506468E+03 0.  0.
         24    2    1    2    0    0 -0.67623277903E+00  0.30358194364E+02 -0.16185275962E+03  0.18227339255E+03  0.78135757371E+02 0.  0.
        -11    1    5    5    0    0  0.16613677594E+02  0.28380511962E+02 -0.18230783727E+02  0.37600920437E+02  0.00000000000E+00 0.  1.
         12    1    5    5    0    0 -0.17289910373E+02  0.19776824023E+01 -0.14362197589E+03  0.14467247211E+03  0.00000000000E+00 0. -1.
        -13    1    3    3    0    0 -0.10991408989E+03 -0.82772674207E+02 -0.10325917182E+04  0.10417188101E+04  0.00000000000E+00 0.  1.
         14    1    3    3    0    0 -0.30755503990E+02  0.19613474247E+02 -0.28371096013E+03  0.28604632194E+03  0.00000000000E+00 0. -1.
          5    1    4    4  501    0 -0.82288066060E+00  0.30164000441E+02 -0.64303288043E+02  0.71186704575E+02  0.47000000000E+01 0. -1.
         -5    1    4    4    0  501  0.17053331818E+03 -0.41926765078E+02 -0.17590638630E+03  0.24860533578E+03  0.47000000000E+01 0. -1.
          1    1    1    2  502    0  0.10235020857E+02 -0.48878787472E+02  0.87635641224E+03  0.87777813415E+03  0.00000000000E+00 0. -1.
          1    1    1    2  503    0 -0.38599631710E+02  0.93442557706E+02 -0.17221115250E+04  0.17250766788E+04  0.00000000000E+00 0. -1.
<mgrwt>
<rscale>  0 0.70824913E+02</rscale>
<asrwt>0</asrwt>
<pdfrwt beam="1">  1        2 0.13739449E+00 0.49938878E+02</pdfrwt>
<pdfrwt beam="2">  1        2 0.51447101E+00 0.10044616E+03</pdfrwt>
<totfact> 0.78464912E+00</totfact>
</mgrwt>
</event>
<event>
13    1  0.2101801E-008  0.7218951E+02  0.7546771E-02  0.1401181E+00
          2   -1    0    0  503    0  0.00000000000E+00  0.00000000000E+00  0.30330456834E+04  0.30330456834E+04  0.00000000000E+00 0. -1.
          2   -1    0    0  502    0 -0.00000000000E+00 -0.00000000000E+00 -0.94365325571E+03  0.94365325571E+03  0.00000000000E+00 0. -1.
         24    2    1    2    0    0 -0.35130869778E+03  0.69917429293E+03  0.30259085984E+03  0.84301556065E+03  0.82773872720E+02 0.  0.
         25    2    1    2    0    0 -0.22320311193E+03  0.25578150544E+03  0.94385766563E+03  0.10108099092E+04  0.12500228722E+03 0.  0.
         24    2    1    2    0    0  0.54731361313E+03 -0.98384164158E+03  0.90962262327E+03  0.14495903383E+04  0.80014157341E+02 0.  0.
        -11    1    5    5    0    0  0.22802836273E+03 -0.37169091372E+03  0.39652584562E+03  0.58939275174E+03  0.00000000000E+00 0.  1.
         12    1    5    5    0    0  0.31928525040E+03 -0.61215072785E+03  0.51309677764E+03  0.86019758658E+03  0.00000000000E+00 0. -1.
        -13    1    3    3    0    0 -0.14395870496E+03  0.34287468756E+03  0.10854812093E+03  0.38738850610E+03  0.00000000000E+00 0.  1.
         14    1    3    3    0    0 -0.20734999282E+03  0.35629960537E+03  0.19404273892E+03  0.45562705455E+03  0.00000000000E+00 0. -1.
          5    1    4    4  501    0 -0.11608516876E+03  0.77957156915E+02  0.24930388726E+03  0.28588039968E+03  0.47000000000E+01 0. -1.
         -5    1    4    4    0  501 -0.10711794316E+03  0.17782434853E+03  0.69455377837E+03  0.72492950949E+03  0.47000000000E+01 0. -1.
          1    1    1    2  502    0  0.71640867913E+02  0.93109984275E+01 -0.36446860524E+03  0.37155951455E+03  0.00000000000E+00 0. -1.
          1    1    1    2  503    0 -0.44442671338E+02  0.19574844772E+02  0.29778988414E+03  0.30172361637E+03  0.00000000000E+00 0. -1.
<mgrwt>
<rscale>  0 0.59209036E+02</rscale>
<asrwt>0</asrwt>
<pdfrwt beam="1">  1        2 0.44603613E+00 0.48562594E+02</pdfrwt>
<pdfrwt beam="2">  1        2 0.13877254E+00 0.72189511E+02</pdfrwt>
<totfact> 0.15656310E+01</totfact>
</mgrwt>
</event>
<event>
13    1  0.2101801E-008  0.3518026E+02  0.7546771E-02  0.1559509E+00
          2   -1    0    0  502    0  0.00000000000E+00  0.00000000000E+00  0.13803300712E+04  0.13803300712E+04  0.00000000000E+00 0. -1.
          2   -1    0    0  503    0 -0.00000000000E+00 -0.00000000000E+00 -0.27912389793E+04  0.27912389793E+04  0.00000000000E+00 0. -1.
         24    2    1    2    0    0 -0.41114054419E+00 -0.39221786779E+03 -0.24449579368E+03  0.46909124713E+03  0.80208354640E+02 0.  0.
         25    2    1    2    0    0  0.39694967231E+01 -0.23005874491E+03 -0.31534118983E+03  0.40989450909E+03  0.12502263618E+03 0.  0.
         24    2    1    2    0    0  0.16595455857E+02  0.66989125691E+03  0.38168635482E+03  0.77818388756E+03  0.10419205423E+03 0.  0.
        -11    1    5    5    0    0  0.19554036017E+02  0.31768677779E+03  0.12322062063E+03  0.34130714972E+03  0.00000000000E+00 0.  1.
         12    1    5    5    0    0 -0.29585801596E+01  0.35220447913E+03  0.25846573420E+03  0.43687673784E+03  0.00000000000E+00 0. -1.
        -13    1    3    3    0    0 -0.30666890948E+02 -0.25954631719E+03 -0.13343267718E+03  0.29344339881E+03  0.00000000000E+00 0.  1.
         14    1    3    3    0    0  0.30255750404E+02 -0.13267155060E+03 -0.11106311650E+03  0.17564784832E+03  0.00000000000E+00 0. -1.
          5    1    4    4  501    0  0.52766849415E+02 -0.12460297056E+03 -0.11230209888E+03  0.17590932915E+03  0.47000000000E+01 0.  1.
         -5    1    4    4    0  501 -0.48797352691E+02 -0.10545577435E+03 -0.20303909095E+03  0.23398517993E+03  0.47000000000E+01 0.  1.
          1    1    1    2  502    0 -0.29451781129E+02 -0.13686583994E+02  0.64024381101E+03  0.64106697585E+03  0.00000000000E+00 0. -1.
          1    1    1    2  503    0  0.92979690927E+01 -0.33928060217E+02 -0.18730020905E+04  0.18733324309E+04  0.00000000000E+00 0. -1.
<mgrwt>
<rscale>  0 0.33801412E+02</rscale>
<asrwt>0</asrwt>
<pdfrwt beam="1">  1        2 0.20298972E+00 0.32476607E+02</pdfrwt>
<pdfrwt beam="2">  1        2 0.41047631E+00 0.35180259E+02</pdfrwt>
<totfact> 0.13615721E+01</totfact>
</mgrwt>
</event>
<event>
13    1  0.2101801E-008  0.2025897E+03  0.7546771E-02  0.1188069E+00
          2   -1    0    0  503    0  0.00000000000E+00  0.00000000000E+00  0.89448244351E+03  0.89448244351E+03  0.00000000000E+00 0. -1.
          2   -1    0    0  502    0 -0.00000000000E+00 -0.00000000000E+00 -0.76227800478E+03  0.76227800478E+03  0.00000000000E+00 0. -1.
         24    2    1    2    0    0  0.11097847053E+03 -0.74523406230E+02 -0.68551605032E+02  0.17058072344E+03  0.80799143931E+02 0.  0.
         25    2    1    2    0    0  0.15782828307E+03 -0.15241751729E+03  0.19279049513E+01  0.25252826716E+03  0.12500376947E+03 0.  0.
         24    2    1    2    0    0 -0.46349112740E+02 -0.20178749087E+02 -0.41331965615E+02  0.10321677881E+03  0.79937162072E+02 0.  0.
        -13    1    3    3    0    0  0.21365045181E+01  0.13637222694E+02 -0.15620829191E+02  0.20845834091E+02  0.00000000000E+00 0.  1.
         14    1    3    3    0    0  0.10884196601E+03 -0.88160628924E+02 -0.52930775841E+02  0.14973488935E+03  0.00000000000E+00 0. -1.
        -13    1    5    5    0    0 -0.14898208086E+02 -0.46692410553E+02 -0.67460627225E+01  0.49473701799E+02  0.00000000000E+00 0.  1.
         14    1    5    5    0    0 -0.31450904654E+02  0.26513661466E+02 -0.34585902892E+02  0.53743077013E+02  0.00000000000E+00 0. -1.
          5    1    4    4  501    0  0.13684601650E+03 -0.49046003715E+02  0.14644656686E+02  0.14618104762E+03  0.47000000000E+01 0.  1.
         -5    1    4    4    0  501  0.20982266570E+02 -0.10337151357E+03 -0.12716751734E+02  0.10634721954E+03  0.47000000000E+01 0.  1.
          1    1    1    2  502    0 -0.13052839739E+03  0.74848302382E+02 -0.41782251896E+03  0.44408961736E+03  0.00000000000E+00 0. -1.
          1    1    1    2  503    0 -0.91929243466E+02  0.17227137022E+03  0.65798262338E+03  0.68634506152E+03  0.00000000000E+00 0. -1.
<mgrwt>
<rscale>  0 0.16055742E+03</rscale>
<asrwt>0</asrwt>
<pdfrwt beam="1">  1        2 0.13154154E+00 0.20258965E+03</pdfrwt>
<pdfrwt beam="2">  1        2 0.11209971E+00 0.12724581E+03</pdfrwt>
<totfact> 0.21002509E+02</totfact>
</mgrwt>
</event>
<event>
13    1  0.2101801E-008  0.1544803E+03  0.7546771E-02  0.1405545E+00
          2   -1    0    0  503    0  0.00000000000E+00  0.00000000000E+00  0.12967407597E+04  0.12967407597E+04  0.00000000000E+00 0. -1.
          2   -1    0    0  502    0 -0.00000000000E+00 -0.00000000000E+00 -0.28281100175E+04  0.28281100175E+04  0.00000000000E+00 0. -1.
         24    2    1    2    0    0  0.11306002871E+03  0.20978166583E+03 -0.57250966224E+03  0.62542323758E+03  0.81215733290E+02 0.  0.
         25    2    1    2    0    0 -0.70306455426E+02 -0.44163639911E+02  0.45566379854E+03  0.47973588410E+03  0.12499438560E+03 0.  0.
         24    2    1    2    0    0 -0.69935239799E+02  0.69404149937E+02 -0.26226671832E+03  0.29088895492E+03  0.78260326891E+02 0.  0.
        -11    1    3    3    0    0  0.21816425373E+02  0.48646285917E+01 -0.23882878593E+02  0.32711051913E+02  0.00000000000E+00 0.  1.
         12    1    3    3    0    0  0.91243603336E+02  0.20491703724E+03 -0.54862678365E+03  0.59271218566E+03  0.00000000000E+00 0. -1.
        -13    1    5    5    0    0  0.74085719101E+01 -0.87067933363E+01 -0.56048643774E+02  0.57202671763E+02  0.00000000000E+00 0.  1.
         14    1    5    5    0    0 -0.77343811709E+02  0.78110943274E+02 -0.20621807455E+03  0.23368628316E+03  0.00000000000E+00 0. -1.
          5    1    4    4  501    0 -0.39393622840E+02 -0.44259213712E+02  0.44137227206E+03  0.44535638320E+03  0.47000000000E+01 0.  1.
         -5    1    4    4    0  501 -0.30912832586E+02  0.95573801615E-01  0.14291526479E+02  0.34379500897E+02  0.47000000000E+01 0.  1.
          1    1    1    2  502    0  0.38175547197E+02 -0.21605094826E+03 -0.19341741909E+04  0.19465778138E+04  0.00000000000E+00 0. -1.
          1    1    1    2  503    0 -0.10993880681E+02 -0.18971227593E+02  0.78191751518E+03  0.78222488674E+03  0.00000000000E+00 0. -1.
<mgrwt>
<rscale>  0 0.58199811E+02</rscale>
<asrwt>0</asrwt>
<pdfrwt beam="1">  1        2 0.19069717E+00 0.21926534E+02</pdfrwt>
<pdfrwt beam="2">  1        2 0.41589853E+00 0.15448032E+03</pdfrwt>
<totfact> 0.11773013E+01</totfact>
</mgrwt>
</event>
<event>
13    1  0.2101801E-008  0.1377908E+03  0.7546771E-02  0.1262938E+00
          2   -1    0    0  502    0  0.00000000000E+00  0.00000000000E+00  0.26789467121E+04  0.26789467121E+04  0.00000000000E+00 0. -1.
          4   -1    0    0  503    0 -0.00000000000E+00 -0.00000000000E+00 -0.37957478130E+03  0.37957478130E+03  0.00000000000E+00 0. -1.
         24    2    1    2    0    0 -0.17713472583E+02  0.65401532310E+02  0.31224526769E+02  0.10954708398E+03  0.80215117014E+02 0.  0.
         25    2    1    2    0    0  0.42827863331E+02 -0.16732224363E+03  0.19605625584E+03  0.28964391076E+03  0.12499832197E+03 0.  0.
         24    2    1    2    0    0 -0.52495959713E+02 -0.11573389419E+02  0.16068311556E+04  0.16098540645E+04  0.82667872230E+02 0.  0.
        -11    1    5    5    0    0  0.16905711199E+02  0.13608319680E+02  0.56134839046E+03  0.56176774997E+03  0.00000000000E+00 0.  1.
         12    1    5    5    0    0 -0.69401670912E+02 -0.25181709100E+02  0.10454827652E+04  0.10480863145E+04  0.00000000000E+00 0. -1.
        -13    1    3    3    0    0 -0.66134513353E+01  0.83264596518E+02  0.28913367804E+02  0.88389555999E+02  0.00000000000E+00 0.  1.
         14    1    3    3    0    0 -0.11100021247E+02 -0.17863064208E+02  0.23111589658E+01  0.21157527983E+02  0.00000000000E+00 0. -1.
          5    1    4    4  501    0  0.49918200036E+02 -0.16314059081E+03  0.10995908793E+03  0.20302652557E+03  0.47000000000E+01 0. -1.
         -5    1    4    4    0  501 -0.70903367046E+01 -0.41816528129E+01  0.86097167913E+02  0.86617385192E+02  0.47000000000E+01 0. -1.
          1    1    1    2  502    0 -0.85619218013E+02 -0.55693748136E+01  0.73160051608E+03  0.73661454204E+03  0.00000000000E+00 0. -1.
          3    1    1    2  503    0  0.11300078698E+03  0.11906347555E+03 -0.26634052353E+03  0.31286189212E+03  0.00000000000E+00 0. -1.
<mgrwt>
<rscale>  0 0.10873119E+03</rscale>
<asrwt>0</asrwt>
<pdfrwt beam="1">  1        2 0.39396274E+00 0.85800166E+02</pdfrwt>
<pdfrwt beam="2">  1        4 0.55819822E-01 0.13779079E+03</pdfrwt>
<totfact> 0.69042865E+00</totfact>
</mgrwt>
</event>
<event>
13    1  0.2101801E-008  0.5567307E+02  0.7546771E-02  0.1485057E+00
          2   -1    0    0  503    0  0.00000000000E+00  0.00000000000E+00  0.20396498138E+04  0.20396498138E+04  0.00000000000E+00 0. -1.
          2   -1    0    0  502    0 -0.00000000000E+00 -0.00000000000E+00 -0.27788102898E+04  0.27788102898E+04  0.00000000000E+00 0. -1.
         24    2    1    2    0    0 -0.65572896973E+03 -0.16294807175E+04 -0.53796797281E+03  0.18387325581E+04  0.79624053663E+02 0.  0.
         25    2    1    2    0    0  0.64952003884E+03  0.11706477337E+04 -0.83059893916E+01  0.13446133228E+04  0.12499440414E+03 0.  0.
         24    2    1    2    0    0 -0.37925123707E+02  0.46892164726E+03 -0.31059302338E+03  0.56616122239E+03  0.52389667767E+02 0.  0.
        -11    1    5    5    0    0 -0.19567341177E+02  0.88418164502E+02 -0.80186321204E+02  0.12095659867E+03  0.00000000000E+00 0.  1.
         12    1    5    5    0    0 -0.18357782530E+02  0.38050348275E+03 -0.23040670217E+03  0.44520462371E+03  0.00000000000E+00 0. -1.
        -13    1    3    3    0    0 -0.74659785897E+02 -0.23885434267E+03 -0.56469250169E+02  0.25654289477E+03  0.00000000000E+00 0.  1.
         14    1    3    3    0    0 -0.58106918384E+03 -0.13906263748E+04 -0.48149872264E+03  0.15821896633E+04  0.00000000000E+00 0. -1.
          5    1    4    4  501    0  0.44399076162E+02  0.16279385269E+03 -0.89804109208E+01  0.16904394168E+03  0.47000000000E+01 0.  1.
         -5    1    4    4    0  501  0.60512096268E+03  0.10078538810E+04  0.67442152922E+00  0.11755693811E+04  0.47000000000E+01 0.  1.
          1    1    1    2  502    0 -0.65860903258E+01 -0.33071246608E+02 -0.47371609924E+03  0.47491475721E+03  0.00000000000E+00 0. -1.
          1    1    1    2  503    0  0.50720144920E+02  0.22982583154E+02  0.59142260879E+03  0.59403824322E+03  0.00000000000E+00 0. -1.
<mgrwt>
<rscale>  0 0.43328207E+02</rscale>
<asrwt>0</asrwt>
<pdfrwt beam="1">  1        2 0.29994850E+00 0.55673070E+02</pdfrwt>
<pdfrwt beam="2">  1        2 0.40864857E+00 0.33720675E+02</pdfrwt>
<totfact> 0.65063788E+00</totfact>
</mgrwt>
</event>
<event>
13    1  0.2101801E-008  0.3884810E+02  0.7546771E-02  0.1525846E+00
          2   -1    0    0  503    0  0.00000000000E+00  0.00000000000E+00  0.26712390678E+04  0.26712390678E+04  0.00000000000E+00 0. -1.
          2   -1    0    0  502    0 -0.00000000000E+00 -0.00000000000E+00 -0.31169343619E+02  0.31169343619E+02  0.00000000000E+00 0. -1.
         24    2    1    2    0    0 -0.18664506695E+01 -0.13065232522E+02  0.19559614071E+03  0.21143573192E+03  0.79202490715E+02 0.  0.
         25    2    1    2    0    0 -0.10817088190E+03 -0.12961795968E+02  0.13197814850E+04  0.13301577820E+04  0.12501043587E+03 0.  0.
         24    2    1    2    0    0  0.41725150098E+02  0.55263370884E+02  0.47678973073E+03  0.48859609737E+03  0.81256819539E+02 0.  0.
        -11    1    5    5    0    0 -0.20330355809E+02  0.77226650002E+01  0.47433507812E+02  0.52181419925E+02  0.00000000000E+00 0.  1.
         12    1    5    5    0    0  0.62055505908E+02  0.47540705884E+02  0.42935622292E+03  0.43641467744E+03  0.00000000000E+00 0. -1.
        -11    1    3    3    0    0 -0.19175633338E+02 -0.41012638978E+02  0.13649045419E+03  0.14380328771E+03  0.00000000000E+00 0.  1.
         12    1    3    3    0    0  0.17309182668E+02  0.27947406456E+02  0.59105686514E+02  0.67632444215E+02  0.00000000000E+00 0. -1.
          5    1    4    4  501    0 -0.13504259549E+03 -0.16280740008E+02  0.11686077203E+04  0.11765065487E+04  0.47000000000E+01 0. -1.
         -5    1    4    4    0  501  0.26871713581E+02  0.33189440398E+01  0.15117376464E+03  0.15365123330E+03  0.47000000000E+01 0. -1.
          1    1    1    2  502    0  0.34265482590E+02 -0.12826547910E+02  0.17276461386E+02  0.40461336439E+02  0.00000000000E+00 0. -1.
          1    1    1    2  503    0  0.34046699886E+02 -0.16409794484E+02  0.63062590641E+03  0.63175746372E+03  0.00000000000E+00 0. -1.
<mgrwt>
<rscale>  0 0.37700849E+02</rscale>
<asrwt>0</asrwt>
<pdfrwt beam="1">  1        2 0.39282912E+00 0.38848100E+02</pdfrwt>
<pdfrwt beam="2">  1        2 0.45837288E-02 0.36587479E+02</pdfrwt>
<totfact> 0.11049691E+03</totfact>
</mgrwt>
</event>
<event>
13    1  0.2101801E-008  0.7928246E+02  0.7546771E-02  0.1370040E+00
         -1   -1    0    0    0  501 -0.00000000000E+00  0.00000000000E+00  0.66397042360E+03  0.66397042360E+03  0.00000000000E+00 0.  1.
          2   -1    0    0  503    0  0.00000000000E+00 -0.00000000000E+00 -0.29501620149E+04  0.29501620149E+04  0.00000000000E+00 0. -1.
         24    2    1    2    0    0  0.90134816649E+02 -0.14391163621E+03  0.10799893415E+03  0.21655147694E+03  0.79974547074E+02 0.  0.
         25    2    1    2    0    0  0.28184995246E+02  0.12935267759E+03  0.64717255113E+02  0.19323421426E+03  0.12499851717E+03 0.  0.
         24    2    1    2    0    0 -0.82716932614E+02  0.13294770441E+02  0.25952908019E+03  0.28439874128E+03  0.80675019174E+02 0.  0.
        -11    1    5    5    0    0  0.68938697515E+01  0.82455484220E+01  0.10719606511E+01  0.10801092934E+02  0.00000000000E+00 0.  1.
         12    1    5    5    0    0 -0.89610802365E+02  0.50492220186E+01  0.25845711954E+03  0.27359764835E+03  0.00000000000E+00 0. -1.
        -11    1    3    3    0    0  0.46703662225E+02 -0.13166517656E+03  0.97087609068E+02  0.17012629021E+03  0.00000000000E+00 0.  1.
         12    1    3    3    0    0  0.43431154424E+02 -0.12246459643E+02  0.10911325085E+02  0.46425186736E+02  0.00000000000E+00 0. -1.
          5    1    4    4  502    0  0.15688467024E+02  0.11117842801E+02 -0.33524366897E+02  0.38932089617E+02  0.47000000000E+01 0. -1.
         -5    1    4    4    0  502  0.12496528223E+02  0.11823483478E+03  0.98241622010E+02  0.15430212464E+03  0.47000000000E+01 0. -1.
          1    1    1    2  503    0 -0.58882817145E+02  0.53166916413E+02 -0.28105588900E+04  0.28116783566E+04  0.00000000000E+00 0. -1.
         -2    1    1    2    0  501  0.23279937863E+02 -0.51902728234E+02  0.92122029228E+02  0.10826964937E+03  0.00000000000E+00 0.  1.
<mgrwt>
<rscale>  0 0.67156124E+02</rscale>
<asrwt>0</asrwt>
<pdfrwt beam="2">  1        2 0.43384735E+00 0.79282463E+02</pdfrwt>
<pdfrwt beam="1">  1       -1 0.97642710E-01 0.56884521E+02</pdfrwt>
<totfact> 0.41666444E+00</totfact>
</mgrwt>
</event>
<event>
13    1  0.2101801E-008  0.1198172E+03  0.7546771E-02  0.1316768E+00
          2   -1    0    0  503    0  0.00000000000E+00  0.00000000000E+00  0.24494721423E+04  0.24494721423E+04  0.00000000000E+00 0. -1.
          2   -1    0    0  502    0 -0.00000000000E+00 -0.00000000000E+00 -0.50656639198E+03  0.50656639198E+03  0.00000000000E+00 0. -1.
         24    2    1    2    0    0  0.13318023498E+02 -0.24358135718E+03  0.19050072460E+03  0.31932150104E+03  0.78526732000E+02 0.  0.
         25    2    1    2    0    0  0.14138816067E+03  0.23838969089E+03  0.82680770951E+03  0.88093880968E+03  0.12498776417E+03 0.  0.
         24    2    1    2    0    0 -0.12171835932E+03  0.63349531802E+02  0.40910759053E+02  0.16428530439E+03  0.80544700992E+02 0.  0.
        -13    1    3    3    0    0 -0.93757052796E+01 -0.22409048880E+03  0.18011253855E+03  0.28765426742E+03  0.00000000000E+00 0.  1.
         14    1    3    3    0    0  0.22693728778E+02 -0.19490868375E+02  0.10388186055E+02  0.31667233623E+02  0.00000000000E+00 0. -1.
        -13    1    5    5    0    0 -0.59378940359E+02 -0.71871019113E+01 -0.40780268653E+01  0.59951174260E+02  0.00000000000E+00 0.  1.
         14    1    5    5    0    0 -0.62339418961E+02  0.70536633713E+02  0.44988785919E+02  0.10433413013E+03  0.00000000000E+00 0. -1.
          5    1    4    4  501    0  0.11797077988E+03  0.15198296606E+03  0.69772069229E+03  0.72377633377E+03  0.47000000000E+01 0.  1.
         -5    1    4    4    0  501  0.23417380792E+02  0.86406724827E+02  0.12908701722E+03  0.15716247591E+03  0.47000000000E+01 0.  1.
          1    1    1    2  502    0 -0.26352566247E+02 -0.11736785882E+03 -0.34242346355E+03  0.36293732300E+03  0.00000000000E+00 0. -1.
          1    1    1    2  503    0 -0.66352585992E+01  0.59209993313E+02  0.12271100207E+04  0.12285555962E+04  0.00000000000E+00 0. -1.
<mgrwt>
<rscale>  0 0.84491322E+02</rscale>
<asrwt>0</asrwt>
<pdfrwt beam="1">  1        2 0.36021649E+00 0.59580617E+02</pdfrwt>
<pdfrwt beam="2">  1        2 0.74495059E-01 0.11981721E+03</pdfrwt>
<totfact> 0.60129254E+01</totfact>
</mgrwt>
</event>
<event>
13    1  0.2101801E-008  0.1134078E+03  0.7546771E-02  0.1258302E+00
          2   -1    0    0  503    0  0.00000000000E+00  0.00000000000E+00  0.13167836862E+04  0.13167836862E+04  0.00000000000E+00 0. -1.
          2   -1    0    0  502    0 -0.00000000000E+00 -0.00000000000E+00 -0.29502503922E+04  0.29502503922E+04  0.00000000000E+00 0. -1.
         24    2    1    2    0    0 -0.72971553329E+02  0.14112292111E+03 -0.10422205788E+04  0.10593569522E+04  0.10379253739E+03 0.  0.
         25    2    1    2    0    0  0.12115101472E+03  0.12222854672E+03  0.64435891247E+03  0.67856057569E+03  0.12501464235E+03 0.  0.
         24    2    1    2    0    0  0.56553044272E+02 -0.12841070159E+03 -0.28225517613E+03  0.32555106163E+03  0.81412248326E+02 0.  0.
        -13    1    3    3    0    0 -0.95221525428E+02  0.10646044037E+03 -0.90104273508E+03  0.91229325039E+03  0.00000000000E+00 0.  1.
         14    1    3    3    0    0  0.22249972099E+02  0.34662480735E+02 -0.14117784376E+03  0.14706370184E+03  0.00000000000E+00 0. -1.
        -13    1    5    5    0    0  0.68061046681E+02 -0.69122118878E+02 -0.21039780874E+03  0.23168386071E+03  0.00000000000E+00 0.  1.
         14    1    5    5    0    0 -0.11508002409E+02 -0.59288582711E+02 -0.71857367389E+02  0.93867200914E+02  0.00000000000E+00 0. -1.
          5    1    4    4  501    0  0.14511103621E+03  0.10371692538E+03  0.58715530366E+03  0.61366754359E+03  0.47000000000E+01 0. -1.
         -5    1    4    4    0  501 -0.23960021486E+02  0.18511621342E+02  0.57203608807E+02  0.64893032098E+02  0.47000000000E+01 0. -1.
          1    1    1    2  502    0  0.55828839651E+01 -0.10895808269E+03 -0.15714137326E+04  0.15751965437E+04  0.00000000000E+00 0. -1.
          1    1    1    2  503    0 -0.11031538963E+03 -0.25982683549E+02  0.61806386903E+03  0.62836894515E+03  0.00000000000E+00 0. -1.
<mgrwt>
<rscale>  0 0.11123357E+03</rscale>
<asrwt>0</asrwt>
<pdfrwt beam="1">  1        2 0.19364467E+00 0.11340780E+03</pdfrwt>
<pdfrwt beam="2">  1        2 0.43386034E+00 0.10910102E+03</pdfrwt>
<totfact> 0.92818347E+00</totfact>
</mgrwt>
</event>
<event>
13    1  0.2101801E-008  0.1592481E+03  0.7546771E-02  0.1213712E+00
          2   -1    0    0  503    0  0.00000000000E+00  0.00000000000E+00  0.19940814984E+04  0.19940814984E+04  0.00000000000E+00 0. -1.
         -1   -1    0    0    0  501 -0.00000000000E+00 -0.00000000000E+00 -0.15169996388E+04  0.15169996388E+04  0.00000000000E+00 0.  1.
         24    2    1    2    0    0 -0.59091331154E+02 -0.13022524772E+02 -0.14128611339E+03  0.17361840046E+03  0.80747827051E+02 0.  0.
         25    2    1    2    0    0  0.30236734043E+03 -0.21359576796E+03  0.64389883147E+02  0.39600080503E+03  0.12498567872E+03 0.  0.
         24    2    1    2    0    0 -0.13270121776E+03 -0.11086406245E+03  0.86926609473E+03  0.89253906202E+03  0.10536593494E+03 0.  0.
        -11    1    5    5    0    0 -0.80649257227E+02 -0.10020037127E+03  0.39755424554E+03  0.41784422365E+03  0.00000000000E+00 0.  1.
         12    1    5    5    0    0 -0.52051960529E+02 -0.10663691176E+02  0.47171184919E+03  0.47469483837E+03  0.00000000000E+00 0. -1.
        -13    1    3    3    0    0 -0.40063174512E+02 -0.44855444782E+02 -0.10879799844E+03  0.12431441325E+03  0.00000000000E+00 0.  1.
         14    1    3    3    0    0 -0.19028156641E+02  0.31832920010E+02 -0.32488114950E+02  0.49303987207E+02  0.00000000000E+00 0. -1.
          5    1    4    4  502    0  0.16380300925E+03 -0.48043043655E+02  0.35976201256E+00  0.17076820346E+03  0.47000000000E+01 0. -1.
         -5    1    4    4    0  502  0.13856433118E+03 -0.16555272430E+03  0.64030121135E+02  0.22523260157E+03  0.47000000000E+01 0. -1.
          1    1    1    2  503    0 -0.52746385952E+02  0.11060143925E+03  0.85079131613E+03  0.85957008044E+03  0.00000000000E+00 0. -1.
         -2    1    1    2    0  501 -0.57828405571E+02  0.22688091593E+03 -0.11660793210E+04  0.11893527892E+04  0.00000000000E+00 0.  1.
<mgrwt>
<rscale>  0 0.13971593E+03</rscale>
<asrwt>0</asrwt>
<pdfrwt beam="1">  1        2 0.29324728E+00 0.12257946E+03</pdfrwt>
<pdfrwt beam="2">  1       -1 0.22308818E+00 0.15924806E+03</pdfrwt>
<totfact> 0.12911929E+00</totfact>
</mgrwt>
</event>
<event>
13    1  0.2101801E-008  0.1801092E+03  0.7546771E-02  0.1195964E+00
          2   -1    0    0  502    0  0.00000000000E+00  0.00000000000E+00  0.81277711217E+03  0.81277711217E+03  0.00000000000E+00 0. -1.
          2   -1    0    0  503    0 -0.00000000000E+00 -0.00000000000E+00 -0.15938141998E+04  0.15938141998E+04  0.00000000000E+00 0. -1.
         24    2    1    2    0    0 -0.93074627953E+02  0.12509788328E+03 -0.11349729720E+03  0.20953074190E+03  0.81909270270E+02 0.  0.
         25    2    1    2    0    0 -0.15378175214E+02 -0.19702973982E+03  0.34875822022E+02  0.23642864861E+03  0.12499990510E+03 0.  0.
         24    2    1    2    0    0 -0.23152171664E+03  0.91203184149E+02  0.31237178666E+03  0.40718384579E+03  0.79386554869E+02 0.  0.
        -11    1    5    5    0    0 -0.11521352076E+03  0.27619066179E+02  0.91939305955E+02  0.14996601002E+03  0.00000000000E+00 0.  1.
         12    1    5    5    0    0 -0.11630819589E+03  0.63584117970E+02  0.22043248070E+03  0.25721783577E+03  0.00000000000E+00 0. -1.
        -13    1    3    3    0    0 -0.54228195191E+01 -0.99464874203E+00  0.10694484828E+02  0.12031970055E+02  0.00000000000E+00 0.  1.
         14    1    3    3    0    0 -0.87651808434E+02  0.12609253203E+03 -0.12419178203E+03  0.19749877184E+03  0.00000000000E+00 0. -1.
          5    1    4    4  501    0 -0.23651363241E+02 -0.19538812397E+03 -0.34545740960E+01  0.19690081273E+03  0.47000000000E+01 0. -1.
         -5    1    4    4    0  501  0.82731880267E+01 -0.16416158488E+01  0.38330396118E+02  0.39527835879E+02  0.47000000000E+01 0. -1.
          1    1    1    2  502    0  0.84053310895E+02  0.10075674466E+03  0.23659130606E+03  0.27054080426E+03  0.00000000000E+00 0. -1.
          1    1    1    2  503    0  0.25592120892E+03 -0.12002807228E+03 -0.12513787051E+04  0.12829072714E+04  0.00000000000E+00 0. -1.
<mgrwt>
<rscale>  0 0.15372928E+03</rscale>
<asrwt>0</asrwt>
<pdfrwt beam="1">  1        2 0.11952605E+00 0.13121311E+03</pdfrwt>
<pdfrwt beam="2">  1        2 0.23438444E+00 0.18010922E+03</pdfrwt>
<totfact> 0.80907869E+01</totfact>
</mgrwt>
</event>
<event>
13    1  0.2101801E-008  0.6423601E+02  0.7546771E-02  0.1400811E+00
          2   -1    0    0  502    0  0.00000000000E+00  0.00000000000E+00  0.91070404144E+03  0.91070404144E+03  0.00000000000E+00 0. -1.
          2   -1    0    0  503    0 -0.00000000000E+00 -0.00000000000E+00 -0.20995647881E+03  0.20995647881E+03  0.00000000000E+00 0. -1.
         24    2    1    2    0    0  0.92211237238E+02 -0.50443192422E+02 -0.19387333586E+02  0.13365059625E+03  0.80244534014E+02 0.  0.
         25    2    1    2    0    0 -0.63530958217E+01  0.75206261767E+02  0.22913271799E+03  0.27170217941E+03  0.12499571275E+03 0.  0.
         24    2    1    2    0    0 -0.24691575950E+02  0.71587387953E+02 -0.24471021878E+02  0.11305953172E+03  0.80306903586E+02 0.  0.
        -11    1    5    5    0    0 -0.35520970780E+02  0.18632598110E+02 -0.40177710077E+02  0.56772893748E+02  0.00000000000E+00 0.  1.
         12    1    5    5    0    0  0.10829394830E+02  0.52954789843E+02  0.15706688199E+02  0.56286637969E+02  0.00000000000E+00 0. -1.
        -13    1    3    3    0    0  0.66790662175E+02  0.88901041695E+01 -0.14455524536E+02  0.68912906596E+02  0.00000000000E+00 0.  1.
         14    1    3    3    0    0  0.25420575063E+02 -0.59333296591E+02 -0.49318090501E+01  0.64737689651E+02  0.00000000000E+00 0. -1.
          5    1    4    4  501    0 -0.39268200603E+02  0.97976780748E+02  0.16925896221E+03  0.19952976578E+03  0.47000000000E+01 0.  1.
         -5    1    4    4    0  501  0.32915104782E+02 -0.22770518982E+02  0.59873755779E+02  0.72172413626E+02  0.47000000000E+01 0.  1.
          1    1    1    2  502    0 -0.46423445228E+02 -0.43637795051E+02  0.53894088130E+03  0.54269389803E+03  0.00000000000E+00 0. -1.
          1    1    1    2  503    0 -0.14743120238E+02 -0.52712662248E+02 -0.23467681193E+02  0.59554314841E+02  0.00000000000E+00 0. -1.
<mgrwt>
<rscale>  0 0.59295832E+02</rscale>
<asrwt>0</asrwt>
<pdfrwt beam="1">  1        2 0.13392706E+00 0.64236011E+02</pdfrwt>
<pdfrwt beam="2">  1        2 0.30875953E-01 0.54735586E+02</pdfrwt>
<totfact> 0.85925808E+02</totfact>
</mgrwt>
</event>
<event>
13    1  0.2101801E-008  0.2537991E+02  0.7546771E-02  0.1670527E+00
          2   -1    0    0  503    0  0.00000000000E+00  0.00000000000E+00  0.69126672951E+03  0.69126672951E+03  0.00000000000E+00 0. -1.
          2   -1    0    0  502    0 -0.00000000000E+00 -0.00000000000E+00 -0.26783101495E+04  0.26783101495E+04  0.00000000000E+00 0. -1.
         24    2    1    2    0    0 -0.17332494191E+03  0.42699688982E+02 -0.98492804989E+03  0.10055373644E+04  0.95693933288E+02 0.  0.
         25    2    1    2    0    0 -0.35794869569E+02 -0.10172959072E+02  0.27341533185E+03  0.30292672314E+03  0.12499557641E+03 0.  0.
         24    2    1    2    0    0  0.22633018328E+03  0.92513903772E+00  0.14726787495E+03  0.28149261805E+03  0.79523954128E+02 0.  0.
        -13    1    5    5    0    0  0.62532290010E+02 -0.22666605076E+02  0.11634255689E+02  0.67523463959E+02  0.00000000000E+00 0.  1.
         14    1    5    5    0    0  0.16379789327E+03  0.23591744114E+02  0.13563361926E+03  0.21396915409E+03  0.00000000000E+00 0. -1.
        -13    1    3    3    0    0 -0.31902343749E+02  0.49217124772E+02 -0.22400681654E+03  0.23155806780E+03  0.00000000000E+00 0.  1.
         14    1    3    3    0    0 -0.14142259816E+03 -0.65174357894E+01 -0.76092123335E+03  0.77397929663E+03  0.00000000000E+00 0. -1.
          5    1    4    4  501    0 -0.41720838272E+02 -0.15388782827E+01  0.15538141912E+02  0.44794199921E+02  0.47000000000E+01 0. -1.
         -5    1    4    4    0  501  0.59259687029E+01 -0.86340807890E+01  0.25787718994E+03  0.25813252322E+03  0.47000000000E+01 0. -1.
          1    1    1    2  502    0 -0.22961593076E+02 -0.10810218265E+02 -0.16003436345E+04  0.16005448585E+04  0.00000000000E+00 0. -1.
          1    1    1    2  503    0  0.57512212738E+01 -0.22641650683E+02  0.17754505765E+03  0.17907531485E+03  0.00000000000E+00 0. -1.
<mgrwt>
<rscale>  0 0.24349367E+02</rscale>
<asrwt>0</asrwt>
<pdfrwt beam="1">  1        2 0.10165687E+00 0.23360670E+02</pdfrwt>
<pdfrwt beam="2">  1        2 0.39386914E+00 0.25379910E+02</pdfrwt>
<totfact> 0.39177928E+01</totfact>
</mgrwt>
</event>
<event>
13    1  0.2101801E-008  0.1210768E+03  0.7546771E-02  0.1324760E+00
          2   -1    0    0  503    0  0.00000000000E+00  0.00000000000E+00  0.20615541279E+04  0.20615541279E+04  0.00000000000E+00 0. -1.
          2   -1    0    0  502    0 -0.00000000000E+00 -0.00000000000E+00 -0.25362739070E+04  0.25362739070E+04  0.00000000000E+00 0. -1.
         24    2    1    2    0    0  0.42761815462E+03 -0.98125578271E+01 -0.11150873768E+04  0.11970616449E+04  0.81136620901E+02 0.  0.
         25    2    1    2    0    0 -0.61652676667E+03  0.37190992399E+03  0.11471328933E+04  0.13601330072E+04  0.12500270702E+03 0.  0.
         24    2    1    2    0    0  0.11256632773E+03 -0.20669679326E+03  0.92478486624E+02  0.26557990955E+03  0.81152174251E+02 0.  0.
        -11    1    3    3    0    0  0.29684149892E+03  0.30683121556E+02 -0.75763307132E+03  0.81428754146E+03  0.00000000000E+00 0.  1.
         12    1    3    3    0    0  0.13077665570E+03 -0.40495679383E+02 -0.35745430547E+03  0.38277410339E+03  0.00000000000E+00 0. -1.
        -13    1    5    5    0    0 -0.83328374694E+01 -0.34545636267E+02  0.28942587804E+02  0.45831327214E+02  0.00000000000E+00 0.  1.
         14    1    5    5    0    0  0.12089916520E+03 -0.17215115700E+03  0.63535898820E+02  0.21974858234E+03  0.00000000000E+00 0. -1.
          5    1    4    4  501    0 -0.31596572155E+03  0.19338241685E+03  0.47383475758E+03  0.60147532271E+03  0.47000000000E+01 0.  1.
         -5    1    4    4    0  501 -0.30056104512E+03  0.17852750714E+03  0.67329813568E+03  0.75865768444E+03  0.47000000000E+01 0.  1.
          1    1    1    2  502    0  0.65777176964E+02 -0.10152434818E+03 -0.11827750148E+04  0.11889451484E+04  0.00000000000E+00 0. -1.
          1    1    1    2  503    0  0.10565107361E+02 -0.53876224721E+02  0.58353123262E+03  0.58610832490E+03  0.00000000000E+00 0. -1.
<mgrwt>
<rscale>  0 0.81531614E+02</rscale>
<asrwt>0</asrwt>
<pdfrwt beam="1">  1        2 0.30316972E+00 0.54902360E+02</pdfrwt>
<pdfrwt beam="2">  1        2 0.37298146E+00 0.12107684E+03</pdfrwt>
<totfact> 0.69675665E+00</totfact>
</mgrwt>
</event>
<event>
13    1  0.2101801E-008  0.1089490E+03  0.7546771E-02  0.1347431E+00
          2   -1    0    0  503    0  0.00000000000E+00  0.00000000000E+00  0.14158198964E+04  0.14158198964E+04  0.00000000000E+00 0. -1.
          2   -1    0    0  502    0 -0.00000000000E+00 -0.00000000000E+00 -0.12961606171E+04  0.12961606171E+04  0.00000000000E+00 0. -1.
         24    2    1    2    0    0  0.22308630603E+02  0.13423121972E+03 -0.34780816688E+03  0.38234188246E+03  0.81848022506E+02 0.  0.
         25    2    1    2    0    0  0.57458250576E+02 -0.77007861926E+02  0.89535160211E+03  0.90912691198E+03  0.12500235726E+03 0.  0.
         24    2    1    2    0    0  0.43494187435E+02 -0.47254372349E+02  0.67584977796E+02  0.12258529185E+03  0.79590856933E+02 0.  0.
        -13    1    5    5    0    0 -0.18069672449E+02  0.77759579112E+01  0.14096428670E+02  0.24200989341E+02  0.00000000000E+00 0.  1.
         14    1    5    5    0    0  0.61563859884E+02 -0.55030330260E+02  0.53488549127E+02  0.98384302508E+02  0.00000000000E+00 0. -1.
        -13    1    3    3    0    0  0.25836905454E+02  0.18716163468E+01 -0.46597088867E+02  0.53313575401E+02  0.00000000000E+00 0.  1.
         14    1    3    3    0    0 -0.35282748513E+01  0.13235960337E+03 -0.30121107802E+03  0.32902830706E+03  0.00000000000E+00 0. -1.
          5    1    4    4  501    0  0.81341586958E+02 -0.19740230859E+02  0.33498946968E+03  0.34532038063E+03  0.47000000000E+01 0.  1.
         -5    1    4    4    0  501 -0.23883336383E+02 -0.57267631067E+02  0.56036213243E+03  0.56380653135E+03  0.47000000000E+01 0.  1.
          1    1    1    2  502    0 -0.95852688622E+02 -0.51877199324E+02 -0.89180465629E+03  0.89844005181E+03  0.00000000000E+00 0. -1.
          1    1    1    2  503    0 -0.27408379991E+02  0.41908213882E+02  0.39633552253E+03  0.39948637536E+03  0.00000000000E+00 0. -1.
<mgrwt>
<rscale>  0 0.73862279E+02</rscale>
<asrwt>0</asrwt>
<pdfrwt beam="1">  1        2 0.20820881E+00 0.50075120E+02</pdfrwt>
<pdfrwt beam="2">  1        2 0.19061185E+00 0.10894904E+03</pdfrwt>
<totfact> 0.58391312E+01</totfact>
</mgrwt>
</event>
<event>
13    1  0.2101801E-008  0.1096984E+03  0.7546771E-02  0.1449957E+00
          4   -1    0    0  503    0 -0.00000000000E+00  0.00000000000E+00  0.89333338209E+03  0.89333338209E+03  0.00000000000E+00 0. -1.
          2   -1    0    0  502    0  0.00000000000E+00 -0.00000000000E+00 -0.12795171908E+04  0.12795171908E+04  0.00000000000E+00 0. -1.
         24    2    1    2    0    0 -0.37633443641E+02 -0.52149277527E+01  0.26098152326E+03  0.27610610116E+03  0.81729750150E+02 0.  0.
         25    2    1    2    0    0 -0.90332947612E+02 -0.17775721759E+02 -0.64097446258E+03  0.65950998357E+03  0.12501655505E+03 0.  0.
         24    2    1    2    0    0  0.26056534723E+02  0.22525221541E+02  0.19902153697E+03  0.21724311683E+03  0.79991693463E+02 0.  0.
        -11    1    5    5    0    0 -0.25534211721E+02  0.19027479474E+02  0.47894700403E+02  0.57514722203E+02  0.00000000000E+00 0.  1.
         12    1    5    5    0    0  0.51590746444E+02  0.34977420672E+01  0.15112683657E+03  0.15972839462E+03  0.00000000000E+00 0. -1.
        -11    1    3    3    0    0 -0.11950512898E+02  0.32533687849E+02  0.17847551374E+03  0.18180969338E+03  0.00000000000E+00 0.  1.
         12    1    3    3    0    0 -0.25682930743E+02 -0.37748615602E+02  0.82506009522E+02  0.94296407772E+02  0.00000000000E+00 0. -1.
          5    1    4    4  501    0 -0.67864527511E+02 -0.23337116141E+02 -0.13480441066E+03  0.15278918226E+03  0.47000000000E+01 0. -1.
         -5    1    4    4    0  501 -0.22468420102E+02  0.55613943818E+01 -0.50617005193E+03  0.50672080131E+03  0.47000000000E+01 0. -1.
          1    1    1    2  502    0 -0.21778163493E+02  0.32901830373E+01 -0.60300302936E+03  0.60340514344E+03  0.00000000000E+00 0. -1.
          3    1    1    2  503    0  0.12368802002E+03 -0.28247550667E+01  0.39779062299E+03  0.41658622791E+03  0.00000000000E+00 0. -1.
<mgrwt>
<rscale>  0 0.49154237E+02</rscale>
<asrwt>0</asrwt>
<pdfrwt beam="2">  1        2 0.18816429E+00 0.22025297E+02</pdfrwt>
<pdfrwt beam="1">  1        4 0.13137256E+00 0.10969836E+03</pdfrwt>
<totfact> 0.53129990E+00</totfact>
</mgrwt>
</event>
<event>
13    1  0.2101801E-008  0.1253952E+03  0.7546771E-02  0.1366966E+00
          2   -1    0    0  502    0  0.00000000000E+00  0.00000000000E+00  0.66887392338E+03  0.66887392338E+03  0.00000000000E+00 0. -1.
          2   -1    0    0  503    0 -0.00000000000E+00 -0.00000000000E+00 -0.21736174624E+04  0.21736174624E+04  0.00000000000E+00 0. -1.
         24    2    1    2    0    0  0.21391954562E+02 -0.38135150622E+02 -0.53183493805E+03  0.53900464275E+03  0.75932194397E+02 0.  0.
         25    2    1    2    0    0 -0.89003342647E+01 -0.19946991462E+03  0.15607319502E+03  0.28257802823E+03  0.12499614812E+03 0.  0.
         24    2    1    2    0    0  0.10946131672E+03  0.50060064989E+02 -0.20463380218E+02  0.14695009317E+03  0.81778909194E+02 0.  0.
        -11    1    3    3    0    0  0.45736179294E+02 -0.31284447239E+02 -0.25154026361E+03  0.25757138612E+03  0.00000000000E+00 0.  1.
         12    1    3    3    0    0 -0.24344224732E+02 -0.68507033835E+01 -0.28029467444E+03  0.28143325663E+03  0.00000000000E+00 0. -1.
        -13    1    5    5    0    0 -0.12595505519E+02  0.23334971879E+01 -0.84472528972E+01  0.15344316534E+02  0.00000000000E+00 0.  1.
         14    1    5    5    0    0  0.12205682224E+03  0.47726567802E+02 -0.12016127321E+02  0.13160577664E+03  0.00000000000E+00 0. -1.
          5    1    4    4  501    0 -0.57244706793E+02 -0.16263604256E+03  0.97961374128E+02  0.19835815994E+03  0.47000000000E+01 0. -1.
         -5    1    4    4    0  501  0.48344372528E+02 -0.36833872057E+02  0.58111820892E+02  0.84219868281E+02  0.47000000000E+01 0. -1.
          1    1    1    2  502    0  0.26581397228E+02  0.25586348724E+02  0.37371062562E+03  0.37552744723E+03  0.00000000000E+00 0. -1.
          1    1    1    2  503    0 -0.14853433425E+03  0.16195865153E+03 -0.14822290414E+04  0.14984311744E+04  0.00000000000E+00 0. -1.
<mgrwt>
<rscale>  0 0.68017946E+02</rscale>
<asrwt>0</asrwt>
<pdfrwt beam="1">  1        2 0.98363815E-01 0.36894877E+02</pdfrwt>
<pdfrwt beam="2">  1        2 0.31964962E+00 0.12539521E+03</pdfrwt>
<totfact> 0.56462345E+01</totfact>
</mgrwt>
</event>
<event>
13    1  0.2101801E-008  0.1031354E+03  0.7546771E-02  0.1292130E+00
          2   -1    0    0  503    0  0.00000000000E+00  0.00000000000E+00  0.15307449085E+04  0.15307449085E+04  0.00000000000E+00 0. -1.
          2   -1    0    0  502    0 -0.00000000000E+00 -0.00000000000E+00 -0.12546238567E+04  0.12546238567E+04  0.00000000000E+00 0. -1.
         24    2    1    2    0    0 -0.54266846419E+02 -0.35049744992E+02 -0.35712558779E+03  0.37154467973E+03  0.79582588165E+02 0.  0.
         25    2    1    2    0    0 -0.37988537223E+01  0.94572220118E+01  0.25259389544E+03  0.28202905292E+03  0.12503135743E+03 0.  0.
         24    2    1    2    0    0  0.56376454921E+02 -0.12741736996E+02  0.33675340863E+02  0.10462520609E+03  0.80447179163E+02 0.  0.
        -11    1    5    5    0    0 -0.30897271372E+01  0.27119584863E+02  0.65621826854E+01  0.28072772191E+02  0.00000000000E+00 0.  1.
         12    1    5    5    0    0  0.59466182058E+02 -0.39861321859E+02  0.27113158178E+02  0.76552433895E+02  0.00000000000E+00 0. -1.
        -13    1    3    3    0    0 -0.29672987813E+02 -0.54030575277E+02 -0.15110113071E+03  0.16319111794E+03  0.00000000000E+00 0.  1.
         14    1    3    3    0    0 -0.24593858606E+02  0.18980830285E+02 -0.20602445708E+03  0.20835356180E+03  0.00000000000E+00 0. -1.
          5    1    4    4  501    0  0.38126338238E+02  0.46167357750E+02  0.76445852658E+02  0.97216773129E+02  0.47000000000E+01 0. -1.
         -5    1    4    4    0  501 -0.41925191960E+02 -0.36710135738E+02  0.17614804278E+03  0.18481227979E+03  0.47000000000E+01 0. -1.
          1    1    1    2  502    0 -0.57981313212E+01  0.12474024966E+03 -0.83385655670E+03  0.84315508974E+03  0.00000000000E+00 0. -1.
          1    1    1    2  503    0  0.74873765420E+01 -0.86405989681E+02  0.11808339599E+04  0.11840147367E+04  0.00000000000E+00 0. -1.
<mgrwt>
<rscale>  0 0.94577522E+02</rscale>
<asrwt>0</asrwt>
<pdfrwt beam="1">  1        2 0.22510954E+00 0.86729786E+02</pdfrwt>
<pdfrwt beam="2">  1        2 0.18450351E+00 0.10313536E+03</pdfrwt>
<totfact> 0.51849214E+01</totfact>
</mgrwt>
</event>
<event>
13    1  0.2101801E-008  0.8955984E+02  0.7546771E-02  0.1333913E+00
          2   -1    0    0  503    0  0.00000000000E+00  0.00000000000E+00  0.86975734990E+03  0.86975734990E+03  0.00000000000E+00 0. -1.
         -1   -1    0    0    0  501 -0.00000000000E+00 -0.00000000000E+00 -0.48847870484E+03  0.48847870484E+03  0.00000000000E+00 0.  1.
         24    2    1    2    0    0 -0.23395871785E+02  0.47750834909E+02 -0.95575473496E+02  0.13486845482E+03  0.78913369723E+02 0.  0.
         25    2    1    2    0    0  0.14601959883E+03  0.15414899071E+03  0.38883852135E+03  0.46033051500E+03  0.12500061109E+03 0.  0.
         24    2    1    2    0    0 -0.59085523364E+02 -0.88080273916E+02  0.98822794712E+02  0.16395131624E+03  0.76582345347E+02 0.  0.
        -13    1    3    3    0    0 -0.21369166058E+02  0.67536979510E+02 -0.89358205268E+02  0.11402970538E+03  0.00000000000E+00 0.  1.
         14    1    3    3    0    0 -0.20267057268E+01 -0.19786144601E+02 -0.62172682281E+01  0.20838749447E+02  0.00000000000E+00 0. -1.
        -13    1    5    5    0    0 -0.16212494929E+02  0.54855939436E+01  0.44277121851E+02  0.47469993177E+02  0.00000000000E+00 0.  1.
         14    1    5    5    0    0 -0.42873028436E+02 -0.93565867859E+02  0.54545672861E+02  0.11648132307E+03  0.00000000000E+00 0. -1.
          5    1    4    4  502    0  0.48195135528E+02  0.12115789157E+03  0.28687246398E+03  0.31515060902E+03  0.47000000000E+01 0. -1.
         -5    1    4    4    0  502  0.97824463306E+02  0.32991099135E+02  0.10196605737E+03  0.14517990598E+03  0.47000000000E+01 0. -1.
          1    1    1    2  503    0 -0.63927500475E+02 -0.24539503655E+02  0.28343882494E+03  0.29159300410E+03  0.00000000000E+00 0. -1.
         -2    1    1    2    0  501  0.38929679117E+00 -0.89280048046E+02 -0.29424602245E+03  0.30749276456E+03  0.00000000000E+00 0.  1.
<mgrwt>
<rscale>  0 0.78311345E+02</rscale>
<asrwt>0</asrwt>
<pdfrwt beam="1">  1        2 0.12790549E+00 0.68475635E+02</pdfrwt>
<pdfrwt beam="2">  1       -1 0.71835104E-01 0.89559838E+02</pdfrwt>
<totfact> 0.86026915E+01</totfact>
</mgrwt>
</event>
<event>
13    1  0.2101801E-008  0.1281285E+03  0.7546771E-02  0.1258172E+00
          2   -1    0    0  503    0  0.00000000000E+00  0.00000000000E+00  0.23426161601E+04  0.23426161601E+04  0.00000000000E+00 0. -1.
          2   -1    0    0  502    0 -0.00000000000E+00 -0.00000000000E+00 -0.21136728885E+04  0.21136728885E+04  0.00000000000E+00 0. -1.
         24    2    1    2    0    0 -0.30770560222E+02 -0.92546552299E+01 -0.30066882854E+02  0.92488129458E+02  0.81348390435E+02 0.  0.
         25    2    1    2    0    0 -0.43084763333E+02  0.51469935882E+01 -0.53395164478E+02  0.14268363020E+03  0.12499914545E+03 0.  0.
         24    2    1    2    0    0  0.35550837353E+02  0.78046306369E+02  0.50534912580E+03  0.51900193077E+03  0.81425900211E+02 0.  0.
        -13    1    5    5    0    0 -0.14239641342E+02  0.53819973360E+02  0.34253617270E+03  0.34703081495E+03  0.00000000000E+00 0.  1.
         14    1    5    5    0    0  0.49790478696E+02  0.24226333008E+02  0.16281295310E+03  0.17197111582E+03  0.00000000000E+00 0. -1.
        -13    1    3    3    0    0 -0.32004628395E+02  0.29243631193E+02 -0.32058260525E+02  0.53918626392E+02  0.00000000000E+00 0.  1.
         14    1    3    3    0    0  0.12340681734E+01 -0.38498286423E+02  0.19913776714E+01  0.38569503067E+02  0.00000000000E+00 0. -1.
          5    1    4    4  501    0 -0.15241473606E+02  0.17445338743E+02 -0.91032179622E+02  0.94050997274E+02  0.47000000000E+01 0.  1.
         -5    1    4    4    0  501 -0.27843289727E+02 -0.12298345155E+02  0.37637015144E+02  0.48632632926E+02  0.47000000000E+01 0.  1.
          1    1    1    2  502    0 -0.57215766453E+02  0.71765343962E+02 -0.19421182232E+04  0.19442857561E+04  0.00000000000E+00 0. -1.
          1    1    1    2  503    0  0.95520252655E+02 -0.14570398869E+03  0.17491744164E+04  0.17578296021E+04  0.00000000000E+00 0. -1.
<mgrwt>
<rscale>  0 0.11130524E+03</rscale>
<asrwt>0</asrwt>
<pdfrwt beam="1">  1        2 0.34450238E+00 0.12812851E+03</pdfrwt>
<pdfrwt beam="2">  1        2 0.31083425E+00 0.96690860E+02</pdfrwt>
<totfact> 0.76604107E+00</totfact>
</mgrwt>
</event>
<event>
13    1  0.2101801E-008  0.1166913E+03  0.7546771E-02  0.1286380E+00
          2   -1    0    0  503    0  0.00000000000E+00  0.00000000000E+00  0.19431117541E+04  0.19431117541E+04  0.00000000000E+00 0. -1.
          2   -1    0    0  502    0 -0.00000000000E+00 -0.00000000000E+00 -0.71364738993E+03  0.71364738993E+03  0.00000000000E+00 0. -1.
         24    2    1    2    0    0  0.39869997365E+02 -0.84710603868E+02 -0.16579145430E+03  0.20644509314E+03  0.79795156897E+02 0.  0.
         25    2    1    2    0    0  0.24783305568E+03  0.78876364571E+00  0.92599333930E+03  0.96670546106E+03  0.12503574840E+03 0.  0.
         24    2    1    2    0    0 -0.74292520689E+02  0.30417773430E+02  0.30444098672E+03  0.32499500378E+03  0.80578027527E+02 0.  0.
        -11    1    5    5    0    0 -0.28838876550E+01  0.11200049594E+01  0.16958037422E+03  0.16960859218E+03  0.00000000000E+00 0.  1.
         12    1    5    5    0    0 -0.71408633034E+02  0.29297768471E+02  0.13486061249E+03  0.15538641160E+03  0.00000000000E+00 0. -1.
        -13    1    3    3    0    0 -0.28749901696E+01  0.13486514454E+02 -0.86476056745E+01  0.16276754114E+02  0.00000000000E+00 0.  1.
         14    1    3    3    0    0  0.42744987534E+02 -0.98197118322E+02 -0.15714384863E+03  0.19016833903E+03  0.00000000000E+00 0. -1.
          5    1    4    4  501    0  0.75873647334E+02 -0.49248220324E+02  0.21121463351E+03  0.22981712071E+03  0.47000000000E+01 0. -1.
         -5    1    4    4    0  501  0.17195940834E+03  0.50036983970E+02  0.71477870580E+03  0.73688834035E+03  0.47000000000E+01 0. -1.
          1    1    1    2  502    0 -0.13584018563E+03  0.30529480819E+02 -0.48458377729E+03  0.50418849892E+03  0.00000000000E+00 0. -1.
          1    1    1    2  503    0 -0.77570346723E+02  0.22974585973E+02  0.64940526976E+03  0.65442508715E+03  0.00000000000E+00 0. -1.
<mgrwt>
<rscale>  0 0.97162014E+02</rscale>
<asrwt>0</asrwt>
<pdfrwt beam="1">  1        2 0.28575173E+00 0.80901114E+02</pdfrwt>
<pdfrwt beam="2">  1        2 0.10494815E+00 0.11669131E+03</pdfrwt>
<totfact> 0.68888294E+01</totfact>
</mgrwt>
</event>
<event>
13    1  0.2101801E-008  0.6486325E+02  0.7546771E-02  0.1382364E+00
          4   -1    0    0  503    0 -0.00000000000E+00  0.00000000000E+00  0.86402287259E+03  0.86402287259E+03  0.00000000000E+00 0. -1.
          2   -1    0    0  502    0  0.00000000000E+00 -0.00000000000E+00 -0.11662880958E+04  0.11662880958E+04  0.00000000000E+00 0. -1.
         24    2    1    2    0    0 -0.37488354069E+02 -0.65745059899E+02  0.26783233744E+03  0.28887569115E+03  0.77377092007E+02 0.  0.
         25    2    1    2    0    0  0.32411362745E+02  0.17856225629E+03 -0.79690683674E+02  0.23433841673E+03  0.12501564976E+03 0.  0.
         24    2    1    2    0    0  0.54869093884E+02 -0.51173694118E+02 -0.98888605791E+02  0.14694168145E+03  0.78635468831E+02 0.  0.
        -11    1    3    3    0    0  0.42538795004E+01 -0.53577708777E+02  0.20851113874E+03  0.21532663873E+03  0.00000000000E+00 0.  1.
         12    1    3    3    0    0 -0.41742233570E+02 -0.12167351122E+02  0.59321198703E+02  0.73549052422E+02  0.00000000000E+00 0. -1.
        -13    1    5    5    0    0 -0.13487260357E+02 -0.31044249346E+02 -0.15424500569E+02  0.37196328141E+02  0.00000000000E+00 0.  1.
         14    1    5    5    0    0  0.68356354241E+02 -0.20129444772E+02 -0.83464105222E+02  0.10974535331E+03  0.00000000000E+00 0. -1.
          5    1    4    4  501    0 -0.11174967647E+02 -0.14790449187E+02 -0.19094546097E+02  0.27024599529E+02  0.47000000000E+01 0.  1.
         -5    1    4    4    0  501  0.43586330393E+02  0.19335270548E+03 -0.60596137577E+02  0.20731381720E+03  0.47000000000E+01 0.  1.
          1    1    1    2  502    0 -0.62813260416E+02  0.20085798565E+01 -0.87252254218E+03  0.87478290260E+03  0.00000000000E+00 0. -1.
          3    1    1    2  503    0  0.13021157856E+02 -0.63652082134E+02  0.48100427096E+03  0.48537227650E+03  0.00000000000E+00 0. -1.
<mgrwt>
<rscale>  0 0.63846337E+02</rscale>
<asrwt>0</asrwt>
<pdfrwt beam="2">  1        2 0.17151296E+00 0.62845366E+02</pdfrwt>
<pdfrwt beam="1">  1        4 0.12706219E+00 0.64863251E+02</pdfrwt>
<totfact> 0.60169877E+00</totfact>
</mgrwt>
</event>
<event>
13    1  0.2101801E-008  0.4788500E+02  0.7546771E-02  0.1463037E+00
          2   -1    0    0  502    0  0.00000000000E+00  0.00000000000E+00  0.19476797075E+04  0.19476797075E+04  0.00000000000E+00 0. -1.
          2   -1    0    0  503    0 -0.00000000000E+00 -0.00000000000E+00 -0.35520522147E+04  0.35520522147E+04  0.00000000000E+00 0. -1.
         24    2    1    2    0    0  0.90998539607E+02 -0.84258380265E+02 -0.25822755916E+04  0.25864659346E+04  0.79237561245E+02 0.  0.
         25    2    1    2    0    0 -0.66570562434E+02  0.10852871240E+03  0.37649005719E+03  0.41663127667E+03  0.12500694516E+03 0.  0.
         24    2    1    2    0    0 -0.16606338329E+02  0.12566431819E+02 -0.12348911973E+03  0.14886835880E+03  0.80489377427E+02 0.  0.
        -13    1    5    5    0    0 -0.25205127195E+02  0.43022967527E+02 -0.60696098753E+02  0.78551197162E+02  0.00000000000E+00 0.  1.
         14    1    5    5    0    0  0.85987888658E+01 -0.30456535708E+02 -0.62793020974E+02  0.70317161635E+02  0.00000000000E+00 0. -1.
        -13    1    3    3    0    0  0.34875543527E+01 -0.51023647223E+02 -0.70119436788E+03  0.70305698002E+03  0.00000000000E+00 0.  1.
         14    1    3    3    0    0  0.87510985254E+02 -0.33234733041E+02 -0.18810812237E+04  0.18834089546E+04  0.00000000000E+00 0. -1.
          5    1    4    4  501    0 -0.85176133069E+02  0.58151764430E+02  0.32889766935E+03  0.34472071051E+03  0.47000000000E+01 0. -1.
         -5    1    4    4    0  501  0.18605570635E+02  0.50376947966E+02  0.47592387847E+02  0.71910566164E+02  0.47000000000E+01 0. -1.
          1    1    1    2  502    0 -0.45327829477E+02 -0.69807587008E+01  0.15352834893E+04  0.15359683381E+04  0.00000000000E+00 0. -1.
          1    1    1    2  503    0  0.37506190633E+02 -0.29856005250E+02 -0.81038134237E+03  0.81179801394E+03  0.00000000000E+00 0. -1.
<mgrwt>
<rscale>  0 0.46862697E+02</rscale>
<asrwt>0</asrwt>
<pdfrwt beam="1">  1        2 0.28642349E+00 0.45862219E+02</pdfrwt>
<pdfrwt beam="2">  1        2 0.52236061E+00 0.47884999E+02</pdfrwt>
<totfact> 0.26791265E+00</totfact>
</mgrwt>
</event>
<event>
13    1  0.2101801E-008  0.1655935E+03  0.7546771E-02  0.1342279E+00
         -3   -1    0    0    0  501 -0.00000000000E+00  0.00000000000E+00  0.12046517863E+04  0.12046517863E+04  0.00000000000E+00 0.  1.
          2   -1    0    0  503    0  0.00000000000E+00 -0.00000000000E+00 -0.20901728975E+04  0.20901728975E+04  0.00000000000E+00 0. -1.
         24    2    1    2    0    0 -0.23415426761E+03 -0.46602993770E+02 -0.23155180205E+03  0.34164637514E+03  0.78140569117E+02 0.  0.
         25    2    1    2    0    0  0.20337206797E+03 -0.16668282872E+03 -0.45231719158E+03  0.53792170990E+03  0.12500224302E+03 0.  0.
         24    2    1    2    0    0 -0.10943844247E+03  0.70046450878E+02  0.10852089287E+03  0.18758791212E+03  0.80803233928E+02 0.  0.
        -11    1    3    3    0    0 -0.22585087824E+03 -0.32210093484E+02 -0.23151328911E+03  0.32503001762E+03  0.00000000000E+00 0.  1.
         12    1    3    3    0    0 -0.83033893782E+01 -0.14392900286E+02 -0.38512941564E-01  0.16616357515E+02  0.00000000000E+00 0. -1.
        -13    1    5    5    0    0 -0.53631068651E+02  0.80002450616E+02  0.67432689203E+02  0.11757487488E+03  0.00000000000E+00 0.  1.
         14    1    5    5    0    0 -0.55807373818E+02 -0.99559997382E+01  0.41088203663E+02  0.70013037239E+02  0.00000000000E+00 0. -1.
          5    1    4    4  502    0  0.26362853126E+01  0.17361343720E+02 -0.20723712159E+02  0.27566800715E+02  0.47000000000E+01 0.  1.
         -5    1    4    4    0  502  0.20073578266E+03 -0.18404417244E+03 -0.43159347942E+03  0.51035490918E+03  0.47000000000E+01 0.  1.
          1    1    1    2  503    0  0.38185203681E+01  0.34225808183E+02 -0.12607334213E+04  0.12612036896E+04  0.00000000000E+00 0. -1.
         -4    1    1    2    0  501  0.13640212175E+03  0.10901356342E+03  0.95056041086E+03  0.96646499705E+03  0.00000000000E+00 0.  1.
<mgrwt>
<rscale>  0 0.75516470E+02</rscale>
<asrwt>0</asrwt>
<pdfrwt beam="2">  1        2 0.30737837E+00 0.34438163E+02</pdfrwt>
<pdfrwt beam="1">  1       -3 0.17715468E+00 0.16559354E+03</pdfrwt>
<totfact> 0.12964696E+00</totfact>
</mgrwt>
</event>
<event>
13    1  0.2101801E-008  0.6295446E+02  0.7546771E-02  0.1429497E+00
          2   -1    0    0  503    0  0.00000000000E+00  0.00000000000E+00  0.28217374080E+04  0.28217374080E+04  0.00000000000E+00 0. -1.
          2   -1    0    0  502    0 -0.00000000000E+00 -0.00000000000E+00 -0.20239672117E+03  0.20239672117E+03  0.00000000000E+00 0. -1.
         24    2    1    2    0    0  0.49569261296E+02 -0.43083050540E+02  0.38284792429E+01  0.98432881990E+02  0.73219629159E+02 0.  0.
         25    2    1    2    0    0 -0.87390757539E+02  0.20019772778E+02  0.20154508138E+04  0.20213135542E+04  0.12501426167E+03 0.  0.
         24    2    1    2    0    0 -0.13689602489E+02  0.15128981900E+02 -0.17846570990E+02  0.86159279340E+02  0.81784044963E+02 0.  0.
        -11    1    3    3    0    0 -0.83909181443E+01 -0.36268499935E+02 -0.98175495534E+01  0.38499297059E+02  0.00000000000E+00 0.  1.
         12    1    3    3    0    0  0.57960179440E+02 -0.68145506053E+01  0.13646028796E+02  0.59933584930E+02  0.00000000000E+00 0. -1.
        -11    1    5    5    0    0 -0.47677076838E+02  0.11857080628E+02 -0.39257994653E+01  0.49285960661E+02  0.00000000000E+00 0.  1.
         12    1    5    5    0    0  0.33987474349E+02  0.32719012724E+01 -0.13920771525E+02  0.36873318679E+02  0.00000000000E+00 0. -1.
          5    1    4    4  501    0 -0.11735766391E+03  0.66927571708E+01  0.13825434179E+04  0.13875395514E+04  0.47000000000E+01 0.  1.
         -5    1    4    4    0  501  0.29966906373E+02  0.13327015607E+02  0.63290739591E+03  0.63377400279E+03  0.47000000000E+01 0.  1.
          1    1    1    2  502    0  0.51238000977E+02 -0.36787541542E+02 -0.89452791934E+02  0.10945527827E+03  0.00000000000E+00 0. -1.
          1    1    1    2  503    0  0.27309775557E+00  0.44721837403E+02  0.70736075668E+03  0.70877313537E+03  0.00000000000E+00 0. -1.
<mgrwt>
<rscale>  0 0.53061206E+02</rscale>
<asrwt>0</asrwt>
<pdfrwt beam="1">  1        2 0.41496136E+00 0.44722671E+02</pdfrwt>
<pdfrwt beam="2">  1        2 0.29764225E-01 0.62954459E+02</pdfrwt>
<totfact> 0.10778236E+02</totfact>
</mgrwt>
</event>
<event>
13    1  0.2101801E-008  0.1657032E+03  0.7546771E-02  0.1206900E+00
          2   -1    0    0  503    0  0.00000000000E+00  0.00000000000E+00  0.11112383550E+04  0.11112383550E+04  0.00000000000E+00 0. -1.
          2   -1    0    0  502    0 -0.00000000000E+00 -0.00000000000E+00 -0.18076634515E+04  0.18076634515E+04  0.00000000000E+00 0. -1.
         24    2    1    2    0    0 -0.80365750671E+02 -0.26773255208E+02 -0.23864138273E+02  0.11886276020E+03  0.79896167568E+02 0.  0.
         25    2    1    2    0    0  0.55103319616E+02 -0.22794464261E+02  0.24010886774E+03  0.27718914774E+03  0.12500236727E+03 0.  0.
         24    2    1    2    0    0  0.39930076276E+02  0.53373690347E+02 -0.25279275288E+03  0.27331863640E+03  0.79722890574E+02 0.  0.
        -13    1    3    3    0    0 -0.56710498112E+02 -0.54981293314E+02 -0.22034952506E+02  0.82003428846E+02  0.00000000000E+00 0.  1.
         14    1    3    3    0    0 -0.23655252559E+02  0.28208038106E+02 -0.18291857669E+01  0.36859331356E+02  0.00000000000E+00 0. -1.
        -13    1    5    5    0    0  0.56585312414E+02  0.34647440676E+02 -0.11092562163E+03  0.12925492741E+03  0.00000000000E+00 0.  1.
         14    1    5    5    0    0 -0.16655236138E+02  0.18726249671E+02 -0.14186713125E+03  0.14406370899E+03  0.00000000000E+00 0. -1.
          5    1    4    4  501    0 -0.15876915804E+02 -0.34828571184E+02  0.17757278713E+03  0.18171210899E+03  0.47000000000E+01 0. -1.
         -5    1    4    4    0  501  0.70980235420E+02  0.12034106923E+02  0.62536080611E+02  0.95477038747E+02  0.47000000000E+01 0. -1.
          1    1    1    2  502    0  0.22339453347E+03  0.37472586203E+01 -0.14279766416E+04  0.14453499398E+04  0.00000000000E+00 0. -1.
          1    1    1    2  503    0 -0.23806217869E+03 -0.75532294975E+01  0.76809956848E+03  0.80418132240E+03  0.00000000000E+00 0. -1.
<mgrwt>
<rscale>  0 0.14488759E+03</rscale>
<asrwt>0</asrwt>
<pdfrwt beam="1">  1        2 0.16341741E+00 0.12668686E+03</pdfrwt>
<pdfrwt beam="2">  1        2 0.26583286E+00 0.16570315E+03</pdfrwt>
<totfact> 0.42351659E+01</totfact>
</mgrwt>
</event>
<event>
13    1  0.2101801E-008  0.9131081E+02  0.7546771E-02  0.1474386E+00
         -3   -1    0    0    0  501 -0.00000000000E+00  0.00000000000E+00  0.38735243360E+03  0.38735243360E+03  0.00000000000E+00 0.  1.
          2   -1    0    0  503    0  0.00000000000E+00 -0.00000000000E+00 -0.11830775821E+04  0.11830775821E+04  0.00000000000E+00 0. -1.
         24    2    1    2    0    0 -0.86450185194E+02 -0.52030029185E+02 -0.45267948398E+03  0.47107897559E+03  0.82558631075E+02 0.  0.
         25    2    1    2    0    0  0.12108264763E+03 -0.55803387359E+02  0.13417227517E+03  0.22672326608E+03  0.12500485734E+03 0.  0.
         24    2    1    2    0    0 -0.70813638091E+02  0.19436364984E+02 -0.70547939447E+02  0.13057030416E+03  0.81726672180E+02 0.  0.
        -13    1    3    3    0    0 -0.91218766408E+02 -0.39257120718E+02 -0.44387702289E+03  0.45485030100E+03  0.00000000000E+00 0.  1.
         14    1    3    3    0    0  0.47685812136E+01 -0.12772908466E+02 -0.88024610895E+01  0.16228674583E+02  0.00000000000E+00 0. -1.
        -13    1    5    5    0    0  0.70469757620E+01 -0.20772074803E+02 -0.10338248968E+02  0.24249089689E+02  0.00000000000E+00 0.  1.
         14    1    5    5    0    0 -0.77860613853E+02  0.40208439787E+02 -0.60209690479E+02  0.10632121447E+03  0.00000000000E+00 0. -1.
          5    1    4    4  502    0  0.28847852309E+02  0.22377274909E+02  0.91146385113E+02  0.98299005765E+02  0.47000000000E+01 0. -1.
         -5    1    4    4    0  502  0.92234795325E+02 -0.78180662268E+02  0.43025890054E+02  0.12842426031E+03  0.47000000000E+01 0. -1.
          1    1    1    2  503    0  0.53194476413E+02  0.74182345830E+02 -0.56998311490E+03  0.57724641534E+03  0.00000000000E+00 0. -1.
         -4    1    1    2    0  501 -0.17013300763E+02  0.14214705730E+02  0.16331311468E+03  0.16481105451E+03  0.00000000000E+00 0.  1.
<mgrwt>
<rscale>  0 0.44992928E+02</rscale>
<asrwt>0</asrwt>
<pdfrwt beam="2">  1        2 0.17398200E+00 0.91310814E+02</pdfrwt>
<pdfrwt beam="1">  1       -3 0.56963594E-01 0.22170031E+02</pdfrwt>
<totfact> 0.38776077E+01</totfact>
</mgrwt>
</event>
<event>
13    1  0.2101801E-008  0.7434932E+02  0.7546771E-02  0.1388077E+00
          2   -1    0    0  503    0  0.00000000000E+00  0.00000000000E+00  0.34357931524E+04  0.34357931524E+04  0.00000000000E+00 0. -1.
          2   -1    0    0  502    0 -0.00000000000E+00 -0.00000000000E+00 -0.19609557742E+04  0.19609557742E+04  0.00000000000E+00 0. -1.
         24    2    1    2    0    0 -0.73971756087E+03  0.69401142203E+03 -0.42543524210E+03  0.11029907882E+04  0.82216846397E+02 0.  0.
         25    2    1    2    0    0  0.37401169653E+03 -0.85902276310E+03  0.10546186927E+04  0.14162059550E+04  0.12495544521E+03 0.  0.
         24    2    1    2    0    0  0.39370338156E+03  0.20131049480E+03  0.77468210588E+03  0.89586659809E+03  0.83164466137E+02 0.  0.
        -13    1    5    5    0    0  0.47142300257E+02  0.43864773217E+02  0.16492131800E+03  0.17704676200E+03  0.00000000000E+00 0.  1.
         14    1    5    5    0    0  0.34656108130E+03  0.15744572158E+03  0.60976078788E+03  0.71881983608E+03  0.00000000000E+00 0. -1.
        -13    1    3    3    0    0 -0.24772140085E+03  0.24653829062E+03 -0.10609629813E+03  0.36524436431E+03  0.00000000000E+00 0.  1.
         14    1    3    3    0    0 -0.49199616001E+03  0.44747313141E+03 -0.31933894397E+03  0.73774642388E+03  0.00000000000E+00 0. -1.
          5    1    4    4  501    0  0.28602413903E+03 -0.76182716940E+03  0.89665290434E+03  0.12108670303E+04  0.47000000000E+01 0. -1.
         -5    1    4    4    0  501  0.87987557509E+02 -0.97195593695E+02  0.15796578839E+03  0.20533892474E+03  0.47000000000E+01 0. -1.
          1    1    1    2  502    0 -0.36393656326E+02  0.37630517635E+02 -0.95328925040E+03  0.95472558833E+03  0.00000000000E+00 0. -1.
          1    1    1    2  503    0  0.83961391049E+01 -0.73929671368E+02  0.10242610721E+04  0.10269599969E+04  0.00000000000E+00 0. -1.
<mgrwt>
<rscale>  0 0.62387572E+02</rscale>
<asrwt>0</asrwt>
<pdfrwt beam="1">  1        2 0.50526370E+00 0.74349316E+02</pdfrwt>
<pdfrwt beam="2">  1        2 0.28837585E+00 0.52350302E+02</pdfrwt>
<totfact> 0.27889835E+00</totfact>
</mgrwt>
</event>
<event>
13    1  0.2101801E-008  0.1062086E+03  0.7546771E-02  0.1374592E+00
         -3   -1    0    0    0  501 -0.00000000000E+00  0.00000000000E+00  0.33622299496E+03  0.33622299496E+03  0.00000000000E+00 0.  1.
          2   -1    0    0  503    0  0.00000000000E+00 -0.00000000000E+00 -0.23743709954E+04  0.23743709954E+04  0.00000000000E+00 0. -1.
         24    2    1    2    0    0  0.30336405764E+02 -0.14635712335E+03  0.19202862684E+03  0.25626679265E+03  0.80355276233E+02 0.  0.
         25    2    1    2    0    0 -0.53433939637E+02  0.14634798557E+03 -0.57014784344E+03  0.60412598446E+03  0.12500689159E+03 0.  0.
         24    2    1    2    0    0  0.27745649661E+01 -0.82725146296E+02 -0.20144540374E+03  0.23424005432E+03  0.86238067692E+02 0.  0.
        -13    1    3    3    0    0  0.55899425831E+02 -0.72798224416E+02  0.10667304411E+03  0.14072478682E+03  0.00000000000E+00 0.  1.
         14    1    3    3    0    0 -0.25563020067E+02 -0.73558898932E+02  0.85355582730E+02  0.11554200583E+03  0.00000000000E+00 0. -1.
        -13    1    5    5    0    0  0.43950406354E+02 -0.43556640419E+02 -0.91215344784E+02  0.11022276656E+03  0.00000000000E+00 0.  1.
         14    1    5    5    0    0 -0.41175841388E+02 -0.39168505876E+02 -0.11023005896E+03  0.12401728777E+03  0.00000000000E+00 0. -1.
          5    1    4    4  502    0 -0.31225362301E+02  0.20540273821E+02 -0.27543670178E+02  0.46665510459E+02  0.47000000000E+01 0. -1.
         -5    1    4    4    0  502 -0.22208577335E+02  0.12580771174E+03 -0.54260417326E+03  0.55746047400E+03  0.47000000000E+01 0. -1.
          1    1    1    2  503    0 -0.13637746971E+02  0.10552271957E+03 -0.15299827599E+04  0.15336780230E+04  0.00000000000E+00 0. -1.
         -4    1    1    2    0  501  0.33960715877E+02 -0.22788435487E+02  0.71399379857E+02  0.82283135932E+02  0.00000000000E+00 0.  1.
<mgrwt>
<rscale>  0 0.65906857E+02</rscale>
<asrwt>0</asrwt>
<pdfrwt beam="2">  1        2 0.34917220E+00 0.10620857E+03</pdfrwt>
<pdfrwt beam="1">  1       -3 0.49444559E-01 0.40897959E+02</pdfrwt>
<totfact> 0.13824709E+01</totfact>
</mgrwt>
</event>
<event>
13    1  0.2101801E-008  0.7006542E+02  0.7546771E-02  0.1411161E+00
          2   -1    0    0  502    0  0.00000000000E+00  0.00000000000E+00  0.16758304985E+03  0.16758304985E+03  0.00000000000E+00 0. -1.
          2   -1    0    0  503    0 -0.00000000000E+00 -0.00000000000E+00 -0.23734757946E+04  0.23734757946E+04  0.00000000000E+00 0. -1.
         24    2    1    2    0    0  0.26696089414E+02  0.68078629838E+02 -0.55461636893E+03  0.56428956654E+03  0.74000116162E+02 0.  0.
         25    2    1    2    0    0  0.10558480705E+02 -0.14858396068E+02 -0.97149902460E+02  0.15935321184E+03  0.12499235627E+03 0.  0.
         24    2    1    2    0    0 -0.12082318160E+02 -0.30871824745E+02 -0.18301272595E+03  0.20271907053E+03  0.80636912895E+02 0.  0.
        -11    1    3    3    0    0 -0.92535429768E+01  0.51875644158E+02 -0.43862071678E+03  0.44177465262E+03  0.00000000000E+00 0.  1.
         12    1    3    3    0    0  0.35949632391E+02  0.16202985680E+02 -0.11599565215E+03  0.12251491391E+03  0.00000000000E+00 0. -1.
        -11    1    5    5    0    0  0.19066501059E+02 -0.47865219250E+02 -0.10190524590E+03  0.11418970977E+03  0.00000000000E+00 0.  1.
         12    1    5    5    0    0 -0.31148819219E+02  0.16993394505E+02 -0.81107480049E+02  0.88529360753E+02  0.00000000000E+00 0. -1.
          5    1    4    4  501    0  0.63422091771E+02 -0.29582368455E+02 -0.43908759784E+02  0.82749908966E+02  0.47000000000E+01 0.  1.
         -5    1    4    4    0  501 -0.52863611066E+02  0.14723972387E+02 -0.53241142676E+02  0.76603302874E+02  0.47000000000E+01 0.  1.
          1    1    1    2  502    0  0.44821059621E+02 -0.11473179876E+02  0.11652441565E+03  0.12537344490E+03  0.00000000000E+00 0. -1.
          1    1    1    2  503    0 -0.69993311580E+02 -0.10875229149E+02 -0.14876381631E+04  0.14893235507E+04  0.00000000000E+00 0. -1.
<mgrwt>
<rscale>  0 0.56935584E+02</rscale>
<asrwt>0</asrwt>
<pdfrwt beam="1">  1        2 0.24644566E-01 0.46266200E+02</pdfrwt>
<pdfrwt beam="2">  1        2 0.34904056E+00 0.70065420E+02</pdfrwt>
<totfact> 0.20256204E+02</totfact>
</mgrwt>
</event>
<event>
13    1  0.2101801E-008  0.1980121E+03  0.7546771E-02  0.1296148E+00
          2   -1    0    0  503    0  0.00000000000E+00  0.00000000000E+00  0.36063018214E+04  0.36063018214E+04  0.00000000000E+00 0. -1.
          2   -1    0    0  502    0 -0.00000000000E+00 -0.00000000000E+00 -0.29915848668E+04  0.29915848668E+04  0.00000000000E+00 0. -1.
         24    2    1    2    0    0  0.56529314862E+02  0.32420283150E+02 -0.58438127204E+02  0.12291002865E+03  0.86285701206E+02 0.  0.
         25    2    1    2    0    0 -0.33058174060E+02  0.18185358926E+03  0.11204996387E+04  0.11425006472E+04  0.12499887085E+03 0.  0.
         24    2    1    2    0    0 -0.23769306596E+03  0.14039326619E+03  0.20976487457E+03  0.35447561313E+03  0.73779366402E+02 0.  0.
        -11    1    3    3    0    0  0.77651227056E+02  0.13340407543E+02 -0.35796367387E+02  0.86539352060E+02  0.00000000000E+00 0.  1.
         12    1    3    3    0    0 -0.21121912194E+02  0.19079875606E+02 -0.22641759816E+02  0.36370676588E+02  0.00000000000E+00 0. -1.
        -13    1    5    5    0    0 -0.20137783732E+03  0.12270079717E+03  0.20734549975E+03  0.31400744458E+03  0.00000000000E+00 0.  1.
         14    1    5    5    0    0 -0.36315228635E+02  0.17692469028E+02  0.24193748223E+01  0.40468168548E+02  0.00000000000E+00 0. -1.
          5    1    4    4  501    0  0.15164617573E+01  0.37297438203E+02  0.59989644387E+03  0.60107506347E+03  0.47000000000E+01 0.  1.
         -5    1    4    4    0  501 -0.34574635817E+02  0.14455615105E+03  0.52060319488E+03  0.54142558377E+03  0.47000000000E+01 0.  1.
          1    1    1    2  502    0  0.18107199726E+03 -0.32647586059E+03 -0.28049670231E+04  0.28297020261E+04  0.00000000000E+00 0. -1.
          1    1    1    2  503    0  0.33149927895E+02 -0.28191278012E+02  0.21478575916E+04  0.21482983730E+04  0.00000000000E+00 0. -1.
<mgrwt>
<rscale>  0 0.92826447E+02</rscale>
<asrwt>0</asrwt>
<pdfrwt beam="1">  1        2 0.53033850E+00 0.43516271E+02</pdfrwt>
<pdfrwt beam="2">  1        2 0.43993895E+00 0.19801212E+03</pdfrwt>
<totfact> 0.63687376E-01</totfact>
</mgrwt>
</event>
<event>
13    1  0.2101801E-008  0.1009327E+03  0.7546771E-02  0.1329019E+00
          2   -1    0    0  502    0  0.00000000000E+00  0.00000000000E+00  0.40772019619E+04  0.40772019619E+04  0.00000000000E+00 0. -1.
          2   -1    0    0  503    0 -0.00000000000E+00 -0.00000000000E+00 -0.49389316797E+03  0.49389316797E+03  0.00000000000E+00 0. -1.
         24    2    1    2    0    0  0.11413600132E+03 -0.41392605030E+02 -0.78744201727E+02  0.16610917194E+03  0.81555092710E+02 0.  0.
         25    2    1    2    0    0 -0.23517687353E+03  0.31142747392E+02  0.15922143483E+04  0.16146368986E+04  0.12501100384E+03 0.  0.
         24    2    1    2    0    0  0.87148894805E+02 -0.67842780279E+01 -0.80056513044E+02  0.14255966177E+03  0.79203886196E+02 0.  0.
        -11    1    3    3    0    0  0.11920433960E+03 -0.16989268191E+02 -0.71980428260E+02  0.14028361225E+03  0.00000000000E+00 0.  1.
         12    1    3    3    0    0 -0.50683382760E+01 -0.24403336839E+02 -0.67637734675E+01  0.25825559690E+02  0.00000000000E+00 0. -1.
        -13    1    5    5    0    0  0.16966956252E+02 -0.23171249366E+02 -0.61900467415E+02  0.68238202407E+02  0.00000000000E+00 0.  1.
         14    1    5    5    0    0  0.70181938552E+02  0.16386971338E+02 -0.18156045629E+02  0.74321459360E+02  0.00000000000E+00 0. -1.
          5    1    4    4  501    0 -0.11912946737E+03  0.28772166233E+02  0.44615430414E+03  0.46270446361E+03  0.47000000000E+01 0. -1.
         -5    1    4    4    0  501 -0.11604740616E+03  0.23705811592E+01  0.11460600441E+04  0.11519324350E+04  0.47000000000E+01 0. -1.
          1    1    1    2  502    0 -0.58199755489E+02 -0.25214459006E+02  0.23880944880E+04  0.23889366388E+04  0.00000000000E+00 0. -1.
          1    1    1    2  503    0  0.92091732897E+02  0.42248594671E+02 -0.23819932760E+03  0.25885275871E+03  0.00000000000E+00 0. -1.
<mgrwt>
<rscale>  0 0.80011577E+02</rscale>
<asrwt>0</asrwt>
<pdfrwt beam="1">  1        2 0.59958851E+00 0.63426970E+02</pdfrwt>
<pdfrwt beam="2">  1        2 0.72631350E-01 0.10093265E+03</pdfrwt>
<totfact> 0.75538243E+00</totfact>
</mgrwt>
</event>
<event>
13    1  0.2101801E-008  0.9148947E+02  0.7546771E-02  0.1365307E+00
          2   -1    0    0  502    0  0.00000000000E+00  0.00000000000E+00  0.10639543170E+04  0.10639543170E+04  0.00000000000E+00 0. -1.
          2   -1    0    0  503    0 -0.00000000000E+00 -0.00000000000E+00 -0.24079338472E+04  0.24079338472E+04  0.00000000000E+00 0. -1.
         24    2    1    2    0    0 -0.75738777722E+02  0.12231207690E+03 -0.37763412188E+03  0.41039295645E+03  0.71541890464E+02 0.  0.
         25    2    1    2    0    0 -0.94170761978E+02  0.57433655315E+02 -0.15946516368E+03  0.23071120094E+03  0.12502704762E+03 0.  0.
         24    2    1    2    0    0  0.27480585984E+03 -0.15274651071E+03 -0.56484905730E+03  0.65052368795E+03  0.72641956982E+02 0.  0.
        -11    1    3    3    0    0 -0.25357513839E+02  0.10402234918E+03 -0.25286957249E+03  0.27460275550E+03  0.00000000000E+00 0.  1.
         12    1    3    3    0    0 -0.50381263883E+02  0.18289727727E+02 -0.12476454939E+03  0.13579020096E+03  0.00000000000E+00 0. -1.
        -11    1    5    5    0    0  0.26777668628E+03 -0.13806994892E+03 -0.50078882612E+03  0.58442887752E+03  0.00000000000E+00 0.  1.
         12    1    5    5    0    0  0.70291735539E+01 -0.14676561790E+02 -0.64060231181E+02  0.66094810430E+02  0.00000000000E+00 0. -1.
          5    1    4    4  501    0  0.29764015831E+02  0.80121279664E+01 -0.45603162191E+02  0.55243363717E+02  0.47000000000E+01 0.  1.
         -5    1    4    4    0  501 -0.12393477781E+03  0.49421527349E+02 -0.11386200149E+03  0.17546783722E+03  0.47000000000E+01 0.  1.
          1    1    1    2  502    0 -0.88870491578E+02  0.21703143906E+02  0.96641084168E+03  0.97073111913E+03  0.00000000000E+00 0. -1.
          1    1    1    2  503    0 -0.16025828559E+02 -0.48702365411E+02 -0.12084420290E+04  0.12095291998E+04  0.00000000000E+00 0. -1.
<mgrwt>
<rscale>  0 0.68489307E+02</rscale>
<asrwt>0</asrwt>
<pdfrwt beam="1">  1        2 0.15646387E+00 0.91489467E+02</pdfrwt>
<pdfrwt beam="2">  1        2 0.35410791E+00 0.51271313E+02</pdfrwt>
<totfact> 0.26761460E+01</totfact>
</mgrwt>
</event>
<event>
13    1  0.2101801E-008  0.6725440E+02  0.7546771E-02  0.1419123E+00
         -3   -1    0    0    0  501 -0.00000000000E+00  0.00000000000E+00  0.43586703996E+03  0.43586703996E+03  0.00000000000E+00 0.  1.
          2   -1    0    0  503    0  0.00000000000E+00 -0.00000000000E+00 -0.55979470629E+03  0.55979470629E+03  0.00000000000E+00 0. -1.
         24    2    1    2    0    0  0.90364457600E+00  0.10642046187E+03  0.93984951903E+02  0.16308640952E+03  0.80236366494E+02 0.  0.
         25    2    1    2    0    0  0.65654514516E+02 -0.55185408793E+02 -0.26191723966E+03  0.30262334431E+03  0.12499721385E+03 0.  0.
         24    2    1    2    0    0 -0.63693055605E+01 -0.10835508273E+03 -0.86129503008E+02  0.16044836885E+03  0.80894967520E+02 0.  0.
        -11    1    5    5    0    0  0.58841824569E+01 -0.11882489237E+03 -0.79090605895E+02  0.14286113044E+03  0.00000000000E+00 0.  1.
         12    1    5    5    0    0 -0.12253488017E+02  0.10469809633E+02 -0.70388971133E+01  0.17587238411E+02  0.00000000000E+00 0. -1.
        -13    1    3    3    0    0  0.17384166602E+02  0.98896012229E+02  0.43464412457E+02  0.10941565534E+03  0.00000000000E+00 0.  1.
         14    1    3    3    0    0 -0.16480522026E+02  0.75244496442E+01  0.50520539446E+02  0.53670754184E+02  0.00000000000E+00 0. -1.
          5    1    4    4  502    0 -0.77919877749E+01 -0.69227006960E+02 -0.81818994282E+02  0.10756175618E+03  0.47000000000E+01 0.  1.
         -5    1    4    4    0  502  0.73446502291E+02  0.14041598167E+02 -0.18009824538E+03  0.19506158813E+03  0.47000000000E+01 0.  1.
          1    1    1    2  503    0 -0.44557119126E+02 -0.82661402920E+01 -0.11061812175E+03  0.11954093358E+03  0.00000000000E+00 0. -1.
         -4    1    1    2    0  501 -0.15631734406E+02  0.65386169944E+02  0.24075224619E+03  0.24996268999E+03  0.00000000000E+00 0.  1.
<mgrwt>
<rscale>  0 0.55206827E+02</rscale>
<asrwt>0</asrwt>
<pdfrwt beam="2">  1        2 0.82322751E-01 0.45317391E+02</pdfrwt>
<pdfrwt beam="1">  1       -3 0.64098094E-01 0.67254396E+02</pdfrwt>
<totfact> 0.84391241E+01</totfact>
</mgrwt>
</event>
<event>
13    1  0.2101801E-008  0.6265274E+02  0.7546771E-02  0.1472711E+00
         -3   -1    0    0    0  501 -0.00000000000E+00  0.00000000000E+00  0.70499392227E+03  0.70499392227E+03  0.00000000000E+00 0.  1.
          2   -1    0    0  503    0  0.00000000000E+00 -0.00000000000E+00 -0.94267541373E+03  0.94267541373E+03  0.00000000000E+00 0. -1.
         24    2    1    2    0    0  0.71427088676E+02  0.69075279881E+02  0.11460577305E+03  0.17017054112E+03  0.77138230223E+02 0.  0.
         25    2    1    2    0    0 -0.15235045387E+03 -0.13826449477E+03  0.49033907849E+01  0.24078740121E+03  0.12500719193E+03 0.  0.
         24    2    1    2    0    0 -0.52428319815E+01  0.28624532397E+02  0.13095693580E+03  0.15468444262E+03  0.77011081117E+02 0.  0.
        -11    1    5    5    0    0 -0.39455851500E+02  0.19265840614E+02  0.51546840104E+02  0.67712728175E+02  0.00000000000E+00 0.  1.
         12    1    5    5    0    0  0.34213019519E+02  0.93586917824E+01  0.79410095691E+02  0.86971714449E+02  0.00000000000E+00 0. -1.
        -11    1    3    3    0    0 -0.16313770763E+02  0.17696052719E+02  0.23769351172E+02  0.33827081658E+02  0.00000000000E+00 0.  1.
         12    1    3    3    0    0  0.87740859440E+02  0.51379227161E+02  0.90836421880E+02  0.13634345946E+03  0.00000000000E+00 0. -1.
          5    1    4    4  502    0 -0.15008297817E+03 -0.70519315803E+02 -0.22721927593E+02  0.16744028856E+03  0.47000000000E+01 0.  1.
         -5    1    4    4    0  502 -0.22674756914E+01 -0.67745178968E+02  0.27625318378E+02  0.73347112655E+02  0.47000000000E+01 0.  1.
          1    1    1    2  503    0  0.56250468153E+02  0.27363883198E+02 -0.78293583705E+03  0.78543072400E+03  0.00000000000E+00 0. -1.
         -4    1    1    2    0  501  0.29915729017E+02  0.13200799295E+02  0.29478824595E+03  0.29659622704E+03  0.00000000000E+00 0.  1.
<mgrwt>
<rscale>  0 0.45262235E+02</rscale>
<asrwt>0</asrwt>
<pdfrwt beam="2">  1        2 0.13862874E+00 0.62652744E+02</pdfrwt>
<pdfrwt beam="1">  1       -3 0.10367558E+00 0.32698806E+02</pdfrwt>
<totfact> 0.16032464E+01</totfact>
</mgrwt>
</event>
<event>
13    1  0.2101801E-008  0.1692656E+03  0.7546771E-02  0.1260245E+00
          2   -1    0    0  503    0  0.00000000000E+00  0.00000000000E+00  0.16183094820E+04  0.16183094820E+04  0.00000000000E+00 0. -1.
          2   -1    0    0  502    0 -0.00000000000E+00 -0.00000000000E+00 -0.29523890394E+04  0.29523890394E+04  0.00000000000E+00 0. -1.
         24    2    1    2    0    0  0.16110964536E+03  0.11506096682E+03 -0.12957135587E+03  0.25096058376E+03  0.83648875840E+02 0.  0.
         25    2    1    2    0    0 -0.41831848891E+02 -0.17650197638E+03  0.52783208427E+03  0.57195756436E+03  0.12500357996E+03 0.  0.
         24    2    1    2    0    0  0.68098126837E+02 -0.75248990583E+02 -0.10572489835E+03  0.16748073279E+03  0.81069576677E+02 0.  0.
        -11    1    5    5    0    0  0.25143686972E+02  0.15201359303E+02 -0.29514394462E+02  0.41645957783E+02  0.00000000000E+00 0.  1.
         12    1    5    5    0    0  0.42954439865E+02 -0.90450349885E+02 -0.76210503893E+02  0.12583477501E+03  0.00000000000E+00 0. -1.
        -11    1    3    3    0    0  0.99401841191E+02  0.66829346871E+02 -0.12405955891E+03  0.17244611272E+03  0.00000000000E+00 0.  1.
         12    1    3    3    0    0  0.61707804165E+02  0.48231619948E+02 -0.55117969608E+01  0.78514471045E+02  0.00000000000E+00 0. -1.
          5    1    4    4  501    0 -0.26032734695E+02  0.13378626516E+02  0.66838618020E+02  0.73117588732E+02  0.47000000000E+01 0. -1.
         -5    1    4    4    0  501 -0.15799114196E+02 -0.18988060290E+03  0.46099346624E+03  0.49883997563E+03  0.47000000000E+01 0. -1.
          1    1    1    2  502    0 -0.33406207939E+02  0.63457979094E+02 -0.25955187843E+04  0.25965093201E+04  0.00000000000E+00 0. -1.
          1    1    1    2  503    0 -0.15396971536E+03  0.73232021053E+02  0.96890339682E+03  0.98379032041E+03  0.00000000000E+00 0. -1.
<mgrwt>
<rscale>  0 0.11017577E+03</rscale>
<asrwt>0</asrwt>
<pdfrwt beam="1">  1        2 0.23798669E+00 0.16926556E+03</pdfrwt>
<pdfrwt beam="2">  1        2 0.43417486E+00 0.71713945E+02</pdfrwt>
<totfact> 0.67506358E+00</totfact>
</mgrwt>
</event>
<event>
13    1  0.2101801E-008  0.1433920E+03  0.7546771E-02  0.1237798E+00
          2   -1    0    0  502    0  0.00000000000E+00  0.00000000000E+00  0.95068793719E+03  0.95068793719E+03  0.00000000000E+00 0. -1.
          2   -1    0    0  503    0 -0.00000000000E+00 -0.00000000000E+00 -0.91461804492E+03  0.91461804492E+03  0.00000000000E+00 0. -1.
         24    2    1    2    0    0  0.11337310560E+03 -0.27351270446E+03 -0.39883492603E+03  0.50297554985E+03  0.79072403223E+02 0.  0.
         25    2    1    2    0    0 -0.33899747140E+03  0.18894305479E+03  0.21194238907E+03  0.45952568813E+03  0.12500207276E+03 0.  0.
         24    2    1    2    0    0 -0.29544523942E+02  0.52877387330E+02 -0.69391423512E+02  0.12270334489E+03  0.81068145434E+02 0.  0.
        -11    1    5    5    0    0  0.24043991252E+02 -0.73969723786E+00 -0.86474207709E+01  0.25562444197E+02  0.00000000000E+00 0.  1.
         12    1    5    5    0    0 -0.53588515194E+02  0.53617084568E+02 -0.60744002741E+02  0.97140900692E+02  0.00000000000E+00 0. -1.
        -11    1    3    3    0    0  0.15141716608E+02 -0.88966197429E+02 -0.17368217148E+03  0.19572877294E+03  0.00000000000E+00 0.  1.
         12    1    3    3    0    0  0.98231388991E+02 -0.18454650703E+03 -0.22515275456E+03  0.30724677692E+03  0.00000000000E+00 0. -1.
          5    1    4    4  501    0 -0.10484160115E+03  0.96648820525E+02  0.22410139199E+02  0.14441973612E+03  0.47000000000E+01 0.  1.
         -5    1    4    4    0  501 -0.23415587025E+03  0.92294234269E+02  0.18953224988E+03  0.31510595201E+03  0.47000000000E+01 0.  1.
          1    1    1    2  502    0  0.14141048537E+03  0.11811283358E+02  0.51234949086E+03  0.53163750109E+03  0.00000000000E+00 0. -1.
          1    1    1    2  503    0  0.11375840437E+03  0.19880978975E+02 -0.21999563812E+03  0.24846389815E+03  0.00000000000E+00 0. -1.
<mgrwt>
<rscale>  0 0.12327029E+03</rscale>
<asrwt>0</asrwt>
<pdfrwt beam="1">  1        2 0.13980705E+00 0.14339197E+03</pdfrwt>
<pdfrwt beam="2">  1        2 0.13450265E+00 0.10597222E+03</pdfrwt>
<totfact> 0.15818386E+02</totfact>
</mgrwt>
</event>
<event>
13    1  0.2101801E-008  0.6488635E+02  0.7546771E-02  0.1421158E+00
          2   -1    0    0  502    0  0.00000000000E+00  0.00000000000E+00  0.44693220337E+03  0.44693220337E+03  0.00000000000E+00 0. -1.
          2   -1    0    0  503    0 -0.00000000000E+00 -0.00000000000E+00 -0.30947490224E+04  0.30947490224E+04  0.00000000000E+00 0. -1.
         24    2    1    2    0    0 -0.27324238268E+03  0.33764066073E+03 -0.75641268629E+03  0.87584403516E+03  0.79246491892E+02 0.  0.
         25    2    1    2    0    0  0.19692114686E+02  0.82057460411E+02 -0.15500779153E+03  0.21626993204E+03  0.12499624745E+03 0.  0.
         24    2    1    2    0    0  0.18840597658E+03 -0.46238461585E+03 -0.67546838220E+03  0.84179140990E+03  0.55307300167E+02 0.  0.
        -11    1    5    5    0    0  0.11876510414E+03 -0.21895785548E+03 -0.34166997878E+03  0.42283101451E+03  0.00000000000E+00 0.  1.
         12    1    5    5    0    0  0.69640872445E+02 -0.24342676037E+03 -0.33379840342E+03  0.41896039539E+03  0.00000000000E+00 0. -1.
        -13    1    3    3    0    0 -0.18636379540E+03  0.21281311603E+03 -0.41675501414E+03  0.50369199755E+03  0.00000000000E+00 0.  1.
         14    1    3    3    0    0 -0.86878587278E+02  0.12482754469E+03 -0.33965767215E+03  0.37215203761E+03  0.00000000000E+00 0. -1.
          5    1    4    4  501    0  0.45818918592E+01  0.73356369822E+02 -0.17467654590E+03  0.18956828958E+03  0.47000000000E+01 0. -1.
         -5    1    4    4    0  501  0.15110222827E+02  0.87010905890E+01  0.19668754369E+02  0.26701642454E+02  0.47000000000E+01 0. -1.
          1    1    1    2  502    0  0.64793632364E+02 -0.35542416128E+01  0.26916637873E+03  0.27687792773E+03  0.00000000000E+00 0. -1.
          1    1    1    2  503    0  0.35065904726E+00  0.46240736324E+02 -0.13300943377E+04  0.13308979209E+04  0.00000000000E+00 0. -1.
<mgrwt>
<rscale>  0 0.54776628E+02</rscale>
<asrwt>0</asrwt>
<pdfrwt beam="1">  1        2 0.65725323E-01 0.64886351E+02</pdfrwt>
<pdfrwt beam="2">  1        2 0.45511016E+00 0.46242066E+02</pdfrwt>
<totfact> 0.34159899E+01</totfact>
</mgrwt>
</event>
<event>
13    1  0.2101801E-008  0.4657753E+02  0.7546771E-02  0.1549172E+00
          2   -1    0    0  502    0  0.00000000000E+00  0.00000000000E+00  0.18930868517E+04  0.18930868517E+04  0.00000000000E+00 0. -1.
          2   -1    0    0  503    0 -0.00000000000E+00 -0.00000000000E+00 -0.15325027084E+04  0.15325027084E+04  0.00000000000E+00 0. -1.
         24    2    1    2    0    0 -0.19058293110E+03 -0.66401194612E+02 -0.76974526955E+02  0.22408862435E+03  0.59662898785E+02 0.  0.
         25    2    1    2    0    0  0.16280125828E+03 -0.12998345149E+03  0.62669050984E+02  0.25090327136E+03  0.12500037708E+03 0.  0.
         24    2    1    2    0    0  0.25795896413E+02  0.12759839535E+03  0.30511106978E+03  0.34025606282E+03  0.75727436346E+02 0.  0.
        -11    1    5    5    0    0  0.18884539292E+02  0.71080008890E+02  0.25156102906E+03  0.26209148180E+03  0.00000000000E+00 0.  1.
         12    1    5    5    0    0  0.69113571209E+01  0.56518386464E+02  0.53550040720E+02  0.78164581025E+02  0.00000000000E+00 0. -1.
        -13    1    3    3    0    0 -0.11219004449E+03 -0.13371926703E+02 -0.60023140475E+02  0.12793823470E+03  0.00000000000E+00 0.  1.
         14    1    3    3    0    0 -0.78392886606E+02 -0.53029267909E+02 -0.16951386480E+02  0.96150389646E+02  0.00000000000E+00 0. -1.
          5    1    4    4  501    0  0.62533275374E+02  0.16985484003E+02  0.17468073873E+02  0.67276599205E+02  0.47000000000E+01 0. -1.
         -5    1    4    4    0  501  0.10026798290E+03 -0.14696893549E+03  0.45200977110E+02  0.18362667215E+03  0.47000000000E+01 0. -1.
          1    1    1    2  502    0 -0.10609081213E+02  0.23960086638E+02  0.13395052132E+04  0.13397614916E+04  0.00000000000E+00 0. -1.
          1    1    1    2  503    0  0.12594857623E+02  0.44826164107E+02 -0.12697266636E+04  0.12705801099E+04  0.00000000000E+00 0. -1.
<mgrwt>
<rscale>  0 0.34935763E+02</rscale>
<asrwt>0</asrwt>
<pdfrwt beam="1">  1        2 0.27839512E+00 0.26203785E+02</pdfrwt>
<pdfrwt beam="2">  1        2 0.22536805E+00 0.46577527E+02</pdfrwt>
<totfact> 0.30449055E+01</totfact>
</mgrwt>
</event>
<event>
13    1  0.2101801E-008  0.5491100E+02  0.7546771E-02  0.1527699E+00
          2   -1    0    0  503    0  0.00000000000E+00  0.00000000000E+00  0.23184419178E+04  0.23184419178E+04  0.00000000000E+00 0. -1.
          2   -1    0    0  502    0 -0.00000000000E+00 -0.00000000000E+00 -0.77972335428E+03  0.77972335428E+03  0.00000000000E+00 0. -1.
         24    2    1    2    0    0 -0.11871444135E+03 -0.24148474361E+02 -0.18738487280E+03  0.23884183551E+03  0.85182535979E+02 0.  0.
         25    2    1    2    0    0 -0.24364212738E+02 -0.18719627092E+02  0.77438383792E+03  0.78500937148E+03  0.12500138229E+03 0.  0.
         24    2    1    2    0    0  0.13225702527E+03  0.77493934593E+02 -0.11101894874E+03  0.20514557397E+03  0.79134498839E+02 0.  0.
        -11    1    3    3    0    0 -0.10633385208E+03 -0.49294574958E+02 -0.16767467251E+03  0.20457673137E+03  0.00000000000E+00 0.  1.
         12    1    3    3    0    0 -0.12380589263E+02  0.25146100596E+02 -0.19710200295E+02  0.34265104135E+02  0.00000000000E+00 0. -1.
        -13    1    5    5    0    0  0.36079669776E+02 -0.14997641709E+02 -0.24709375322E+02  0.46230131481E+02  0.00000000000E+00 0.  1.
         14    1    5    5    0    0  0.96177355494E+02  0.92491576302E+02 -0.86309573417E+02  0.15891544248E+03  0.00000000000E+00 0. -1.
          5    1    4    4  501    0 -0.44367873267E+02 -0.27822692229E+02  0.12996070520E+03  0.14019445523E+03  0.47000000000E+01 0. -1.
         -5    1    4    4    0  501  0.20003660530E+02  0.91030651368E+01  0.64442313272E+03  0.64481491625E+03  0.47000000000E+01 0. -1.
          1    1    1    2  502    0 -0.24443355404E+02  0.75027210853E+01 -0.40229420771E+03  0.40310593893E+03  0.00000000000E+00 0. -1.
          1    1    1    2  503    0  0.35264984218E+02 -0.42128554225E+02  0.14650327548E+04  0.14660625522E+04  0.00000000000E+00 0. -1.
<mgrwt>
<rscale>  0 0.37470169E+02</rscale>
<asrwt>0</asrwt>
<pdfrwt beam="1">  1        2 0.34094734E+00 0.54910997E+02</pdfrwt>
<pdfrwt beam="2">  1        2 0.11466520E+00 0.25568896E+02</pdfrwt>
<totfact> 0.45290669E+01</totfact>
</mgrwt>
</event>
<event>
13    1  0.2101801E-008  0.1696689E+03  0.7546771E-02  0.1241966E+00
          2   -1    0    0  502    0  0.00000000000E+00  0.00000000000E+00  0.67402295292E+03  0.67402295292E+03  0.00000000000E+00 0. -1.
          2   -1    0    0  503    0 -0.00000000000E+00 -0.00000000000E+00 -0.25631475112E+04  0.25631475112E+04  0.00000000000E+00 0. -1.
         24    2    1    2    0    0 -0.26187041318E+03  0.25522372902E+03 -0.10452393293E+04  0.11103496848E+04  0.81461044818E+02 0.  0.
         25    2    1    2    0    0  0.41446512591E+03 -0.15017228035E+03  0.86129374873E+02  0.46623577010E+03  0.12499787888E+03 0.  0.
         24    2    1    2    0    0 -0.25070132774E+03  0.11274668828E+03 -0.20095800097E+03  0.34987237589E+03  0.80396453968E+02 0.  0.
        -11    1    3    3    0    0 -0.10016457961E+02  0.14527327218E+02 -0.16255121756E+02  0.23991699596E+02  0.00000000000E+00 0.  1.
         12    1    3    3    0    0 -0.25185395522E+03  0.24069640180E+03 -0.10289842075E+04  0.10863579852E+04  0.00000000000E+00 0. -1.
        -13    1    5    5    0    0 -0.43353733049E+01 -0.10145619042E+02 -0.90877927115E+01  0.14293950602E+02  0.00000000000E+00 0.  1.
         14    1    5    5    0    0 -0.24636595443E+03  0.12289230733E+03 -0.19187020826E+03  0.33557842529E+03  0.00000000000E+00 0. -1.
          5    1    4    4  501    0  0.41062649961E+03 -0.16190277205E+03  0.72633205648E+02  0.44735254816E+03  0.47000000000E+01 0.  1.
         -5    1    4    4    0  501  0.38386262962E+01  0.11730491694E+02  0.13496169225E+02  0.18883221944E+02  0.47000000000E+01 0.  1.
          1    1    1    2  502    0  0.68375090093E+02 -0.51909889016E+02  0.27732956089E+03  0.29031271909E+03  0.00000000000E+00 0. -1.
          1    1    1    2  503    0  0.29731524917E+02 -0.16588824793E+03 -0.10063861637E+04  0.10203999142E+04  0.00000000000E+00 0. -1.
<mgrwt>
<rscale>  0 0.12068821E+03</rscale>
<asrwt>0</asrwt>
<pdfrwt beam="1">  1        2 0.99121022E-01 0.85847478E+02</pdfrwt>
<pdfrwt beam="2">  1        2 0.37693346E+00 0.16966887E+03</pdfrwt>
<totfact> 0.33798518E+01</totfact>
</mgrwt>
</event>
<event>
13    1  0.2101801E-008  0.2174087E+03  0.7546771E-02  0.1343747E+00
         -1   -1    0    0    0  501  0.00000000000E+00  0.00000000000E+00  0.11718609659E+04  0.11718609659E+04  0.00000000000E+00 0.  1.
         -1   -1    0    0    0  502 -0.00000000000E+00 -0.00000000000E+00 -0.10306139743E+04  0.10306139743E+04  0.00000000000E+00 0.  1.
         24    2    1    2    0    0  0.14685629633E+03  0.19135380857E+02  0.54298100488E+03  0.56888864967E+03  0.82903495051E+02 0.  0.
         25    2    1    2    0    0  0.25628668932E+02  0.32957886398E+03 -0.21564734363E+03  0.41401373532E+03  0.12499815983E+03 0.  0.
         24    2    1    2    0    0 -0.11838545716E+03 -0.59992355163E+02  0.27485805830E+03  0.31569252262E+03  0.80626406853E+02 0.  0.
        -11    1    3    3    0    0  0.11205468800E+03  0.73685053617E+01  0.49949168891E+03  0.51195946642E+03  0.00000000000E+00 0.  1.
         12    1    3    3    0    0  0.34801608334E+02  0.11766875496E+02  0.43489315976E+02  0.56929183251E+02  0.00000000000E+00 0. -1.
        -13    1    5    5    0    0 -0.10088157957E+03 -0.13072746981E+02  0.21347444944E+03  0.23647268420E+03  0.00000000000E+00 0.  1.
         14    1    5    5    0    0 -0.17503877589E+02 -0.46919608182E+02  0.61383608864E+02  0.79219838423E+02  0.00000000000E+00 0. -1.
          5    1    4    4  503    0 -0.41126901932E+02  0.12274330008E+03 -0.11975939615E+03  0.17641355601E+03  0.47000000000E+01 0.  1.
         -5    1    4    4    0  503  0.66755570864E+02  0.20683556390E+03 -0.95887947486E+02  0.23760017931E+03  0.47000000000E+01 0.  1.
         -2    1    1    2    0  502 -0.21754854770E+02 -0.14055933259E+02 -0.59567942799E+03  0.59624225269E+03  0.00000000000E+00 0.  1.
         -2    1    1    2    0  501 -0.32344653337E+02 -0.27466595642E+03  0.13473470008E+03  0.30763777990E+03  0.00000000000E+00 0.  1.
<mgrwt>
<rscale>  0 0.75040143E+02</rscale>
<asrwt>0</asrwt>
<pdfrwt beam="1">  1       -1 0.17233250E+00 0.21740867E+03</pdfrwt>
<pdfrwt beam="2">  1       -1 0.15156088E+00 0.25900636E+02</pdfrwt>
<totfact> 0.97280467E-01</totfact>
</mgrwt>
</event>
<event>
13    1  0.2101801E-008  0.1106794E+03  0.7546771E-02  0.1331554E+00
          2   -1    0    0  502    0  0.00000000000E+00  0.00000000000E+00  0.19603308971E+04  0.19603308971E+04  0.00000000000E+00 0. -1.
          2   -1    0    0  503    0 -0.00000000000E+00 -0.00000000000E+00 -0.16956858256E+04  0.16956858256E+04  0.00000000000E+00 0. -1.
         24    2    1    2    0    0  0.13155583045E+03  0.21405897030E+02  0.32615756991E+02  0.15942278194E+03  0.81158405876E+02 0.  0.
         25    2    1    2    0    0  0.70655885768E+02 -0.94818044110E+02  0.98347681677E+03  0.99841515074E+03  0.12499379358E+03 0.  0.
         24    2    1    2    0    0  0.12602246665E+02  0.16163062807E+02 -0.18041087355E+02  0.84489413291E+02  0.79955730908E+02 0.  0.
        -11    1    5    5    0    0 -0.30208046910E+02  0.21937363597E+02  0.84627429970E+00  0.37342873482E+02  0.00000000000E+00 0.  1.
         12    1    5    5    0    0  0.42810293576E+02 -0.57743007899E+01 -0.18887361655E+02  0.47146539809E+02  0.00000000000E+00 0. -1.
        -13    1    3    3    0    0  0.12439580533E+02 -0.66683185472E+01  0.34236957564E+02  0.37032133335E+02  0.00000000000E+00 0.  1.
         14    1    3    3    0    0  0.11911624992E+03  0.28074215577E+02 -0.16212005731E+01  0.12239064861E+03  0.00000000000E+00 0. -1.
          5    1    4    4  501    0 -0.32880511894E+02 -0.47086286907E+02  0.30117674011E+03  0.30663947114E+03  0.47000000000E+01 0. -1.
         -5    1    4    4    0  501  0.10353639766E+03 -0.47731757203E+02  0.68230007665E+03  0.69177567960E+03  0.47000000000E+01 0. -1.
          1    1    1    2  502    0 -0.53639763282E+02  0.17958965300E+02  0.83480927171E+03  0.83672353186E+03  0.00000000000E+00 0. -1.
          1    1    1    2  503    0 -0.16117419960E+03  0.39290118973E+02 -0.15682156867E+04  0.15769658449E+04  0.00000000000E+00 0. -1.
<mgrwt>
<rscale>  0 0.79124759E+02</rscale>
<asrwt>0</asrwt>
<pdfrwt beam="1">  1        2 0.28828396E+00 0.56566321E+02</pdfrwt>
<pdfrwt beam="2">  1        2 0.24936556E+00 0.11067942E+03</pdfrwt>
<totfact> 0.20158114E+01</totfact>
</mgrwt>
</event>
<event>
13    1  0.2101801E-008  0.1155109E+03  0.7546771E-02  0.1321539E+00
          2   -1    0    0  502    0  0.00000000000E+00  0.00000000000E+00  0.11416555685E+04  0.11416555685E+04  0.00000000000E+00 0. -1.
          2   -1    0    0  503    0 -0.00000000000E+00 -0.00000000000E+00 -0.41052764434E+04  0.41052764434E+04  0.00000000000E+00 0. -1.
         24    2    1    2    0    0 -0.95592940493E+03  0.18004959166E+03 -0.70205179208E+03  0.12025744339E+04  0.84200163707E+02 0.  0.
         25    2    1    2    0    0  0.39045301388E+03  0.63502487836E+03 -0.49337412300E+03  0.90263726214E+03  0.12500339826E+03 0.  0.
         24    2    1    2    0    0  0.69564926440E+03 -0.76857052546E+03 -0.95627672139E+03  0.14119695840E+04  0.67560244649E+02 0.  0.
        -11    1    5    5    0    0  0.53011504478E+03 -0.56709779302E+03 -0.67893611946E+03  0.10312982701E+04  0.00000000000E+00 0.  1.
         12    1    5    5    0    0  0.16553421962E+03 -0.20147273244E+03 -0.27734060192E+03  0.38067131394E+03  0.00000000000E+00 0. -1.
        -11    1    3    3    0    0 -0.60089340168E+03  0.15433348732E+03 -0.44314313197E+03  0.76240903779E+03  0.00000000000E+00 0.  1.
         12    1    3    3    0    0 -0.35503600324E+03  0.25716104335E+02 -0.25890866011E+03  0.44016539608E+03  0.00000000000E+00 0. -1.
          5    1    4    4  501    0  0.67686135872E+02  0.77127278270E+02 -0.24557182147E+02  0.10561806303E+03  0.47000000000E+01 0. -1.
         -5    1    4    4    0  501  0.32276687800E+03  0.55789760009E+03 -0.46881694085E+03  0.79701919911E+03  0.47000000000E+01 0. -1.
          1    1    1    2  502    0 -0.11498562763E+03  0.10735462736E+02  0.45094591357E+03  0.46549883103E+03  0.00000000000E+00 0. -1.
          1    1    1    2  503    0 -0.15187245723E+02 -0.57239407289E+02 -0.12628641520E+04  0.12642519008E+04  0.00000000000E+00 0. -1.
<mgrwt>
<rscale>  0 0.82707608E+02</rscale>
<asrwt>0</asrwt>
<pdfrwt beam="1">  1        2 0.16789052E+00 0.11551088E+03</pdfrwt>
<pdfrwt beam="2">  1        2 0.60371714E+00 0.59219947E+02</pdfrwt>
<totfact> 0.26586412E+00</totfact>
</mgrwt>
</event>
<event>
13    1  0.2101801E-008  0.8093315E+02  0.7546771E-02  0.1496745E+00
          2   -1    0    0  502    0  0.00000000000E+00  0.00000000000E+00  0.16988418231E+04  0.16988418231E+04  0.00000000000E+00 0. -1.
          2   -1    0    0  503    0 -0.00000000000E+00 -0.00000000000E+00 -0.41686994517E+04  0.41686994517E+04  0.00000000000E+00 0. -1.
         24    2    1    2    0    0 -0.35673680407E+03 -0.11135143809E+03 -0.26754318900E+04  0.27025955059E+04  0.80164704759E+02 0.  0.
         25    2    1    2    0    0  0.12819224396E+03  0.17163454055E+03  0.65487933961E+03  0.70027392287E+03  0.12499980269E+03 0.  0.
         24    2    1    2    0    0  0.30925692747E+03 -0.66853959079E+02 -0.50500428347E+03  0.60134148227E+03  0.80454663843E+02 0.  0.
        -11    1    5    5    0    0  0.27907542756E+03 -0.58981118724E+02 -0.48941672221E+03  0.56647205987E+03  0.00000000000E+00 0.  1.
         12    1    5    5    0    0  0.30181499911E+02 -0.78728403555E+01 -0.15587561263E+02  0.34869422396E+02  0.00000000000E+00 0. -1.
        -11    1    3    3    0    0 -0.18351104460E+03 -0.96426867118E+02 -0.15537758189E+04  0.15675438557E+04  0.00000000000E+00 0.  1.
         12    1    3    3    0    0 -0.17322575947E+03 -0.14924570971E+02 -0.11216560712E+04  0.11350516502E+04  0.00000000000E+00 0. -1.
          5    1    4    4  501    0  0.10834373345E+03  0.18953659239E+03  0.54564030940E+03  0.58771414963E+03  0.47000000000E+01 0. -1.
         -5    1    4    4    0  501  0.19848510511E+02 -0.17902051836E+02  0.10923903021E+03  0.11255977324E+03  0.47000000000E+01 0. -1.
          1    1    1    2  502    0 -0.11339456425E+01  0.21354251889E+02  0.95758305778E+03  0.95782180099E+03  0.00000000000E+00 0. -1.
          1    1    1    2  503    0 -0.79578421720E+02 -0.14783395271E+02 -0.90188385251E+03  0.90550856285E+03  0.00000000000E+00 0. -1.
<mgrwt>
<rscale>  0 0.41601704E+02</rscale>
<asrwt>0</asrwt>
<pdfrwt beam="1">  1        2 0.24982968E+00 0.21384338E+02</pdfrwt>
<pdfrwt beam="2">  1        2 0.61304402E+00 0.80933146E+02</pdfrwt>
<totfact> 0.13695353E+00</totfact>
</mgrwt>
</event>
<event>
13    1  0.2101801E-008  0.8559244E+02  0.7546771E-02  0.1404459E+00
         -1   -1    0    0    0  501 -0.00000000000E+00  0.00000000000E+00  0.10879591196E+04  0.10879591196E+04  0.00000000000E+00 0.  1.
          2   -1    0    0  503    0  0.00000000000E+00 -0.00000000000E+00 -0.82419985278E+03  0.82419985278E+03  0.00000000000E+00 0. -1.
         24    2    1    2    0    0  0.14759764265E+03  0.98850760912E+02  0.44698389528E+03  0.48772160902E+03  0.80754121943E+02 0.  0.
         25    2    1    2    0    0 -0.27030229359E+02 -0.22223450761E+03 -0.31046463761E+03  0.40266394634E+03  0.12502460878E+03 0.  0.
         24    2    1    2    0    0 -0.53170189512E+02  0.40875396409E+02 -0.98217055238E+02  0.14418919938E+03  0.81523421131E+02 0.  0.
        -11    1    3    3    0    0  0.13896782567E+03  0.58264856737E+02  0.38169503152E+03  0.41036318937E+03  0.00000000000E+00 0.  1.
         12    1    3    3    0    0  0.86298169773E+01  0.40585904175E+02  0.65288863760E+02  0.77358419644E+02  0.00000000000E+00 0. -1.
        -11    1    5    5    0    0 -0.55834862155E+02 -0.61252525704E+00 -0.82759602352E+02  0.99835158139E+02  0.00000000000E+00 0.  1.
         12    1    5    5    0    0  0.26646726425E+01  0.41487921666E+02 -0.15457452886E+02  0.44354041238E+02  0.00000000000E+00 0. -1.
          5    1    4    4  502    0  0.35529280498E+02 -0.65781728295E+02 -0.42602296781E+02  0.86177788561E+02  0.47000000000E+01 0. -1.
         -5    1    4    4    0  502 -0.62559509858E+02 -0.15645277931E+03 -0.26786234083E+03  0.31648615777E+03  0.47000000000E+01 0. -1.
          1    1    1    2  503    0 -0.73771447788E+02  0.43107358162E+02 -0.31972404916E+03  0.33094401104E+03  0.00000000000E+00 0. -1.
         -2    1    1    2    0  501  0.63742240079E+01  0.39400992125E+02  0.54518111351E+03  0.54664020657E+03  0.00000000000E+00 0.  1.
<mgrwt>
<rscale>  0 0.58448899E+02</rscale>
<asrwt>0</asrwt>
<pdfrwt beam="2">  1        2 0.12120586E+00 0.85592435E+02</pdfrwt>
<pdfrwt beam="1">  1       -1 0.15999399E+00 0.39913267E+02</pdfrwt>
<totfact> 0.15881993E+01</totfact>
</mgrwt>
</event>
<event>
13    1  0.2101801E-008  0.2496628E+03  0.7546771E-02  0.1202869E+00
          2   -1    0    0  503    0  0.00000000000E+00  0.00000000000E+00  0.24252145597E+04  0.24252145597E+04  0.00000000000E+00 0. -1.
          2   -1    0    0  502    0 -0.00000000000E+00 -0.00000000000E+00 -0.13757964431E+04  0.13757964431E+04  0.00000000000E+00 0. -1.
         24    2    1    2    0    0 -0.18096625091E+03 -0.27862258127E+03 -0.10606715817E+03  0.35775336571E+03  0.79736452589E+02 0.  0.
         25    2    1    2    0    0 -0.15173405046E+03  0.10118619518E+02  0.89951996445E+03  0.92080665584E+03  0.12499248966E+03 0.  0.
         24    2    1    2    0    0 -0.13210909654E+03 -0.23587309255E+02 -0.12223437595E+03  0.19549417857E+03  0.72577934961E+02 0.  0.
        -11    1    3    3    0    0 -0.12022453011E+03 -0.23997225434E+03 -0.96008046748E+02  0.28505817921E+03  0.00000000000E+00 0.  1.
         12    1    3    3    0    0 -0.60741720802E+02 -0.38650326931E+02 -0.10059111420E+02  0.72695186501E+02  0.00000000000E+00 0. -1.
        -13    1    5    5    0    0 -0.11938961035E+03 -0.89728554134E+01 -0.67524927181E+02  0.13745547273E+03  0.00000000000E+00 0.  1.
         14    1    5    5    0    0 -0.12719486189E+02 -0.14614453841E+02 -0.54709448772E+02  0.58038705835E+02  0.00000000000E+00 0. -1.
          5    1    4    4  501    0 -0.95818452617E+02  0.52083695034E+02  0.34449558500E+03  0.36137679122E+03  0.47000000000E+01 0. -1.
         -5    1    4    4    0  501 -0.55915597847E+02 -0.41965075516E+02  0.55502437945E+03  0.55942986462E+03  0.47000000000E+01 0. -1.
          1    1    1    2  502    0  0.51143086614E+03  0.21767658179E+03 -0.89347396215E+03  0.10522548865E+04  0.00000000000E+00 0. -1.
          1    1    1    2  503    0 -0.46621468228E+02  0.74414689222E+02  0.12716736484E+04  0.12747019162E+04  0.00000000000E+00 0. -1.
<mgrwt>
<rscale>  0 0.14806626E+03</rscale>
<asrwt>0</asrwt>
<pdfrwt beam="1">  1        2 0.35664920E+00 0.87812911E+02</pdfrwt>
<pdfrwt beam="2">  1        2 0.20232301E+00 0.24966281E+03</pdfrwt>
<totfact> 0.15658062E+01</totfact>
</mgrwt>
</event>
<event>
13    1  0.2101801E-008  0.1078703E+03  0.7546771E-02  0.1370756E+00
          2   -1    0    0  503    0  0.00000000000E+00  0.00000000000E+00  0.14169314733E+04  0.14169314733E+04  0.00000000000E+00 0. -1.
          2   -1    0    0  502    0 -0.00000000000E+00 -0.00000000000E+00 -0.18050868322E+04  0.18050868322E+04  0.00000000000E+00 0. -1.
         24    2    1    2    0    0 -0.48016755051E+03  0.17951173282E+03 -0.69982331765E+02  0.52383049909E+03  0.81948314369E+02 0.  0.
         25    2    1    2    0    0  0.40840951766E+03  0.95882053972E+02 -0.30961889203E+03  0.53617222598E+03  0.12500038090E+03 0.  0.
         24    2    1    2    0    0 -0.23265144496E+02 -0.21556894299E+03  0.64655045796E+01  0.23852242546E+03  0.99196313286E+02 0.  0.
        -11    1    5    5    0    0 -0.16739063668E+02 -0.14378140307E+03 -0.43111132600E+02  0.15103594895E+03  0.00000000000E+00 0.  1.
         12    1    5    5    0    0 -0.65260808275E+01 -0.71787539920E+02  0.49576637180E+02  0.87486476514E+02  0.00000000000E+00 0. -1.
        -13    1    3    3    0    0 -0.45038565664E+02  0.41827706780E+02 -0.20351704398E+02  0.64747365378E+02  0.00000000000E+00 0.  1.
         14    1    3    3    0    0 -0.43512898485E+03  0.13768402604E+03 -0.49630627368E+02  0.45908313371E+03  0.00000000000E+00 0. -1.
          5    1    4    4  501    0  0.27859243623E+03  0.30470358668E+02 -0.14186919317E+03  0.31415147024E+03  0.47000000000E+01 0.  1.
         -5    1    4    4    0  501  0.12981708143E+03  0.65411695304E+02 -0.16774969886E+03  0.22202075575E+03  0.47000000000E+01 0.  1.
          1    1    1    2  502    0  0.10606827559E+03 -0.19757277884E+02 -0.96579848406E+03  0.97180632892E+03  0.00000000000E+00 0. -1.
          1    1    1    2  503    0 -0.11045098241E+02 -0.40067565921E+02  0.95077884441E+03  0.95168682612E+03  0.00000000000E+00 0. -1.
<mgrwt>
<rscale>  0 0.66957528E+02</rscale>
<asrwt>0</asrwt>
<pdfrwt beam="1">  1        2 0.20837228E+00 0.41562050E+02</pdfrwt>
<pdfrwt beam="2">  1        2 0.26545394E+00 0.10787029E+03</pdfrwt>
<totfact> 0.33112427E+01</totfact>
</mgrwt>
</event>
<event>
13    1  0.2101801E-008  0.1247889E+03  0.7546771E-02  0.1412834E+00
          2   -1    0    0  503    0  0.00000000000E+00  0.00000000000E+00  0.15186066847E+04  0.15186066847E+04  0.00000000000E+00 0. -1.
          2   -1    0    0  502    0 -0.00000000000E+00 -0.00000000000E+00 -0.31233922424E+03  0.31233922424E+03  0.00000000000E+00 0. -1.
         24    2    1    2    0    0  0.12475053423E+02 -0.20474275621E+03  0.14855801441E+03  0.26576209515E+03  0.80528159009E+02 0.  0.
         25    2    1    2    0    0  0.48681661834E+02 -0.24377898503E+02  0.62891497562E+03  0.64352440275E+03  0.12500169695E+03 0.  0.
         24    2    1    2    0    0 -0.56148283364E+02  0.94649752217E+02  0.27934691118E+03  0.31128740395E+03  0.82182393214E+02 0.  0.
        -11    1    5    5    0    0 -0.65230908157E+02  0.10196034082E+03  0.27142621918E+03  0.29719215154E+03  0.00000000000E+00 0.  1.
         12    1    5    5    0    0  0.90826247926E+01 -0.73105885993E+01  0.79206919951E+01  0.14095252409E+02  0.00000000000E+00 0. -1.
        -13    1    3    3    0    0  0.73985766329E+01 -0.11279447999E+03  0.12918708317E+03  0.17165848685E+03  0.00000000000E+00 0.  1.
         14    1    3    3    0    0  0.50764767900E+01 -0.91948276221E+02  0.19370931245E+02  0.94103608294E+02  0.00000000000E+00 0. -1.
          5    1    4    4  501    0  0.60132331752E+02 -0.68059344636E+02  0.42134158606E+03  0.43104384216E+03  0.47000000000E+01 0.  1.
         -5    1    4    4    0  501 -0.11450669918E+02  0.43681446134E+02  0.20757338956E+03  0.21248056059E+03  0.47000000000E+01 0.  1.
          1    1    1    2  502    0 -0.27224620720E+02  0.12166798379E+03 -0.21311417496E+03  0.24690469785E+03  0.00000000000E+00 0. -1.
          1    1    1    2  503    0  0.22216188827E+02  0.12802918705E+02  0.36256173416E+03  0.36346730920E+03  0.00000000000E+00 0. -1.
<mgrwt>
<rscale>  0 0.56566287E+02</rscale>
<asrwt>0</asrwt>
<pdfrwt beam="1">  1        2 0.22332451E+00 0.25641251E+02</pdfrwt>
<pdfrwt beam="2">  1        2 0.45932240E-01 0.12478895E+03</pdfrwt>
<totfact> 0.29848616E+02</totfact>
</mgrwt>
</event>
<event>
13    1  0.2101801E-008  0.1883792E+03  0.7546771E-02  0.1303647E+00
          2   -1    0    0  503    0  0.00000000000E+00  0.00000000000E+00  0.35283953664E+04  0.35283953664E+04  0.00000000000E+00 0. -1.
         -1   -1    0    0    0  501 -0.00000000000E+00 -0.00000000000E+00 -0.28126465765E+03  0.28126465765E+03  0.00000000000E+00 0.  1.
         24    2    1    2    0    0 -0.82769133084E+01  0.47788560830E+02  0.59635315672E+03  0.60350629105E+03  0.78933528776E+02 0.  0.
         25    2    1    2    0    0 -0.23475480074E+03  0.30294779896E+03  0.21411966463E+03  0.45646402344E+03  0.12499995416E+03 0.  0.
         24    2    1    2    0    0  0.17173028863E+03  0.67231226520E+02  0.13623376214E+03  0.24310011102E+03  0.80787970532E+02 0.  0.
        -13    1    5    5    0    0  0.13776781895E+03  0.77742204412E+02  0.13427633306E+03  0.20749447199E+03  0.00000000000E+00 0.  1.
         14    1    5    5    0    0  0.33962469673E+02 -0.10510977892E+02  0.19574290776E+01  0.35605639035E+02  0.00000000000E+00 0. -1.
        -13    1    3    3    0    0  0.10991037460E+02  0.64156011571E+02  0.36320198502E+03  0.36898845327E+03  0.00000000000E+00 0.  1.
         14    1    3    3    0    0 -0.19267950769E+02 -0.16367450741E+02  0.23315117170E+03  0.23451783777E+03  0.00000000000E+00 0. -1.
          5    1    4    4  502    0 -0.24934311527E+03  0.28827939457E+03  0.19629475344E+03  0.42875484685E+03  0.47000000000E+01 0. -1.
         -5    1    4    4    0  502  0.14588314527E+02  0.14668404395E+02  0.17824911194E+02  0.27709176590E+02  0.47000000000E+01 0. -1.
          1    1    1    2  503    0  0.30155713239E+02 -0.42933077144E+03  0.23787584358E+04  0.24173799813E+04  0.00000000000E+00 0. -1.
         -2    1    1    2    0  501  0.41145712186E+02  0.11363185126E+02 -0.78334310493E+02  0.89209617239E+02  0.00000000000E+00 0.  1.
<mgrwt>
<rscale>  0 0.89672458E+02</rscale>
<asrwt>0</asrwt>
<pdfrwt beam="1">  1        2 0.51888165E+00 0.18837924E+03</pdfrwt>
<pdfrwt beam="2">  1       -1 0.41362452E-01 0.42685965E+02</pdfrwt>
<totfact> 0.86978366E+00</totfact>
</mgrwt>
</event>
<event>
13    1  0.2101801E-008  0.8260201E+02  0.7546771E-02  0.1400586E+00
          2   -1    0    0  503    0  0.00000000000E+00  0.00000000000E+00  0.20160620689E+04  0.20160620689E+04  0.00000000000E+00 0. -1.
         -3   -1    0    0    0  501 -0.00000000000E+00 -0.00000000000E+00 -0.81743943676E+03  0.81743943676E+03  0.00000000000E+00 0.  1.
         24    2    1    2    0    0 -0.16466205792E+01  0.60470315587E+02 -0.50533561612E+03  0.51569421086E+03  0.83168887003E+02 0.  0.
         25    2    1    2    0    0  0.62597084006E+01  0.62571977434E+02  0.30490485211E+03  0.33547847250E+03  0.12499760142E+03 0.  0.
         24    2    1    2    0    0 -0.35396334184E+02  0.10700072088E+02  0.66820233965E+02  0.11417551074E+03  0.84874681562E+02 0.  0.
        -13    1    3    3    0    0 -0.39986717814E+02  0.27866750735E+02 -0.17970130332E+03  0.18619358693E+03  0.00000000000E+00 0.  1.
         14    1    3    3    0    0  0.38340097235E+02  0.32603564852E+02 -0.32563431280E+03  0.32950062393E+03  0.00000000000E+00 0. -1.
        -13    1    5    5    0    0  0.15479044865E+01 -0.22122812240E+02 -0.87835747992E+01  0.23853008530E+02  0.00000000000E+00 0.  1.
         14    1    5    5    0    0 -0.36944238671E+02  0.32822884327E+02  0.75603808764E+02  0.90322502214E+02  0.00000000000E+00 0. -1.
          5    1    4    4  502    0 -0.36087629183E+02 -0.21703913663E+02  0.64312085138E+02  0.77016304398E+02  0.47000000000E+01 0.  1.
         -5    1    4    4    0  502  0.42347337584E+02  0.84275891097E+02  0.24059276698E+03  0.25846216810E+03  0.47000000000E+01 0.  1.
          1    1    1    2  503    0  0.39751362182E+02 -0.15430282223E+02  0.15867581756E+04  0.15873310216E+04  0.00000000000E+00 0. -1.
         -4    1    1    2    0  501 -0.89681158196E+01 -0.11831208289E+03 -0.25452501342E+03  0.28082228992E+03  0.00000000000E+00 0.  1.
<mgrwt>
<rscale>  0 0.59348476E+02</rscale>
<asrwt>0</asrwt>
<pdfrwt beam="1">  1        2 0.29647972E+00 0.42641112E+02</pdfrwt>
<pdfrwt beam="2">  1       -3 0.12021168E+00 0.82602011E+02</pdfrwt>
<totfact> 0.35871621E+00</totfact>
</mgrwt>
</event>
<event>
13    1  0.2101801E-008  0.5430120E+02  0.7546771E-02  0.1468918E+00
          2   -1    0    0  503    0  0.00000000000E+00  0.00000000000E+00  0.36396564940E+04  0.36396564940E+04  0.00000000000E+00 0. -1.
          2   -1    0    0  502    0 -0.00000000000E+00 -0.00000000000E+00 -0.16554638131E+04  0.16554638131E+04  0.00000000000E+00 0. -1.
         24    2    1    2    0    0  0.57708043706E+03  0.26888670706E+03 -0.81237102656E+03  0.10341844428E+04  0.65336704066E+02 0.  0.
         25    2    1    2    0    0 -0.41074458568E+03 -0.58234018311E+02  0.12853388618E+03  0.45194059118E+03  0.12500808978E+03 0.  0.
         24    2    1    2    0    0 -0.15011243032E+03 -0.27448402178E+03  0.13654006284E+04  0.14030812639E+04  0.80267907749E+02 0.  0.
        -11    1    5    5    0    0 -0.14261609042E+02 -0.60667853884E+02  0.40805173452E+03  0.41278347839E+03  0.00000000000E+00 0.  1.
         12    1    5    5    0    0 -0.13585082128E+03 -0.21381616789E+03  0.95734889392E+03  0.99029778551E+03  0.00000000000E+00 0. -1.
        -11    1    3    3    0    0  0.28919484550E+03  0.16885397878E+03 -0.44216698019E+03  0.55466833620E+03  0.00000000000E+00 0.  1.
         12    1    3    3    0    0  0.28788559156E+03  0.10003272828E+03 -0.37020404637E+03  0.47951610661E+03  0.00000000000E+00 0. -1.
          5    1    4    4  501    0 -0.26977811962E+03 -0.35756612834E+02  0.14461839880E+03  0.30821314128E+03  0.47000000000E+01 0. -1.
         -5    1    4    4    0  501 -0.14096646605E+03 -0.22477405477E+02 -0.16084512616E+02  0.14372744990E+03  0.47000000000E+01 0. -1.
          1    1    1    2  502    0 -0.36373763600E+02  0.13406883742E+02 -0.55056316582E+03  0.55192625846E+03  0.00000000000E+00 0. -1.
          1    1    1    2  503    0  0.20150342538E+02  0.50424449288E+02  0.18531923587E+04  0.18539877507E+04  0.00000000000E+00 0. -1.
<mgrwt>
<rscale>  0 0.45880662E+02</rscale>
<asrwt>0</asrwt>
<pdfrwt beam="1">  1        2 0.53524360E+00 0.54301202E+02</pdfrwt>
<pdfrwt beam="2">  1        2 0.24345056E+00 0.38765903E+02</pdfrwt>
<totfact> 0.32203475E+00</totfact>
</mgrwt>
</event>
<event>
13    1  0.2101801E-008  0.8414412E+02  0.7546771E-02  0.1376059E+00
          2   -1    0    0  502    0  0.00000000000E+00  0.00000000000E+00  0.20152763992E+04  0.20152763992E+04  0.00000000000E+00 0. -1.
          2   -1    0    0  503    0 -0.00000000000E+00 -0.00000000000E+00 -0.30388499499E+03  0.30388499499E+03  0.00000000000E+00 0. -1.
         24    2    1    2    0    0 -0.10593570902E+01  0.61829602266E+02 -0.72661080313E+02  0.12546506148E+03  0.81472861157E+02 0.  0.
         25    2    1    2    0    0 -0.49257118094E+02 -0.99809714868E+02  0.32366490402E+03  0.36438057908E+03  0.12500397374E+03 0.  0.
         24    2    1    2    0    0  0.37024930740E+02 -0.32114498306E+02  0.47019649710E+03  0.48003044580E+03  0.83320444722E+02 0.  0.
        -11    1    5    5    0    0  0.16499097936E+02 -0.54124016735E+02  0.39504891457E+03  0.39908053614E+03  0.00000000000E+00 0.  1.
         12    1    5    5    0    0  0.20525832804E+02  0.22009518429E+02  0.75147582530E+02  0.80949909660E+02  0.00000000000E+00 0. -1.
        -11    1    3    3    0    0 -0.14540943843E+02 -0.14905964875E+02 -0.31648690135E+01  0.21062840088E+02  0.00000000000E+00 0.  1.
         12    1    3    3    0    0  0.13481586752E+02  0.76735567141E+02 -0.69496211299E+02  0.10440222139E+03  0.00000000000E+00 0. -1.
          5    1    4    4  501    0  0.11896715933E+02  0.18099860688E+02  0.11219331933E+02  0.24841501886E+02  0.47000000000E+01 0. -1.
         -5    1    4    4    0  501 -0.61153834027E+02 -0.11790957556E+03  0.31244557209E+03  0.33953907719E+03  0.47000000000E+01 0. -1.
          1    1    1    2  502    0 -0.49236373805E+02  0.13312145321E+02  0.11592130008E+04  0.11603345271E+04  0.00000000000E+00 0. -1.
          1    1    1    2  503    0  0.62527918249E+02  0.56782465587E+02 -0.16902191739E+03  0.18895078067E+03  0.00000000000E+00 0. -1.
<mgrwt>
<rscale>  0 0.65511130E+02</rscale>
<asrwt>0</asrwt>
<pdfrwt beam="1">  1        2 0.29636417E+00 0.51004252E+02</pdfrwt>
<pdfrwt beam="2">  1        2 0.44688971E-01 0.84144124E+02</pdfrwt>
<totfact> 0.16893890E+02</totfact>
</mgrwt>
</event>
<event>
13    1  0.2101801E-008  0.5899156E+02  0.7546771E-02  0.1490432E+00
          2   -1    0    0  503    0  0.00000000000E+00  0.00000000000E+00  0.33823960820E+04  0.33823960820E+04  0.00000000000E+00 0. -1.
         -1   -1    0    0    0  501 -0.00000000000E+00 -0.00000000000E+00 -0.71528121569E+02  0.71528121569E+02  0.00000000000E+00 0.  1.
         24    2    1    2    0    0 -0.47309425365E+02 -0.15931482470E+03  0.40477751289E+03  0.44484835724E+03  0.80161280533E+02 0.  0.
         25    2    1    2    0    0 -0.31813254702E+02  0.12722652307E+03  0.19175487694E+04  0.19260885277E+04  0.12500024865E+03 0.  0.
         24    2    1    2    0    0  0.31651569773E+01  0.26097773337E+02  0.14195045815E+03  0.16513573515E+03  0.80179588821E+02 0.  0.
        -11    1    3    3    0    0 -0.43115931089E+02 -0.13779384740E+03  0.25139091367E+03  0.28990260325E+03  0.00000000000E+00 0.  1.
         12    1    3    3    0    0 -0.41934942754E+01 -0.21520977299E+02  0.15338659922E+03  0.15494575398E+03  0.00000000000E+00 0. -1.
        -11    1    5    5    0    0  0.35092180046E+02 -0.25790567948E+01  0.33838119683E+02  0.48817322520E+02  0.00000000000E+00 0.  1.
         12    1    5    5    0    0 -0.31927023069E+02  0.28676830132E+02  0.10811233847E+03  0.11631841263E+03  0.00000000000E+00 0. -1.
          5    1    4    4  502    0  0.35547769218E+02  0.23143086486E+02  0.22588489982E+03  0.22988110908E+03  0.47000000000E+01 0.  1.
         -5    1    4    4    0  502 -0.67361023920E+02  0.10408343658E+03  0.16916638696E+04  0.16962074186E+04  0.47000000000E+01 0.  1.
          1    1    1    2  503    0  0.19731703879E+02  0.23454347445E+02  0.85743764627E+03  0.85798529346E+03  0.00000000000E+00 0. -1.
         -2    1    1    2    0  501  0.56225819210E+02 -0.17463819150E+02 -0.10846426227E+02  0.59866290073E+02  0.00000000000E+00 0.  1.
<mgrwt>
<rscale>  0 0.42521930E+02</rscale>
<asrwt>0</asrwt>
<pdfrwt beam="1">  1        2 0.49741108E+00 0.30650392E+02</pdfrwt>
<pdfrwt beam="2">  1       -1 0.10518844E-01 0.58991561E+02</pdfrwt>
<totfact> 0.12995742E+02</totfact>
</mgrwt>
</event>
<event>
13    1  0.2101801E-008  0.3220887E+02  0.7546771E-02  0.1621646E+00
          2   -1    0    0  502    0  0.00000000000E+00  0.00000000000E+00  0.22162573902E+04  0.22162573902E+04  0.00000000000E+00 0. -1.
          2   -1    0    0  503    0 -0.00000000000E+00 -0.00000000000E+00 -0.10795064101E+04  0.10795064101E+04  0.00000000000E+00 0. -1.
         24    2    1    2    0    0 -0.95341437288E+03 -0.14998661418E+03 -0.20057946379E+03  0.98907444281E+03  0.80877569664E+02 0.  0.
         25    2    1    2    0    0  0.42453642566E+03  0.35180412016E+03  0.86502666727E+03  0.10333870096E+04  0.12498104204E+03 0.  0.
         24    2    1    2    0    0  0.48940509549E+03 -0.20339262315E+03  0.13076673167E+03  0.54865721096E+03  0.55126131604E+02 0.  0.
        -13    1    3    3    0    0 -0.45511779441E+03 -0.11234240160E+03 -0.93331373656E+02  0.47797883561E+03  0.00000000000E+00 0.  1.
         14    1    3    3    0    0 -0.49829657847E+03 -0.37644212575E+02 -0.10724809014E+03  0.51109560720E+03  0.00000000000E+00 0. -1.
        -13    1    5    5    0    0  0.25203826879E+03 -0.74952296102E+02  0.66227840214E+02  0.27115910909E+03  0.00000000000E+00 0.  1.
         14    1    5    5    0    0  0.23736682670E+03 -0.12844032705E+03  0.64538891461E+02  0.27749810187E+03  0.00000000000E+00 0. -1.
          5    1    4    4  501    0 -0.59683815068E+01  0.80534033357E+00  0.26366254633E+02  0.27450674568E+02  0.47000000000E+01 0. -1.
         -5    1    4    4    0  501  0.43050480716E+03  0.35099877982E+03  0.83866041263E+03  0.10059363350E+04  0.47000000000E+01 0. -1.
          1    1    1    2  502    0  0.14868548501E+02 -0.19211738203E+02  0.53145764472E+03  0.53201258702E+03  0.00000000000E+00 0. -1.
          1    1    1    2  503    0  0.24604303230E+02  0.20786855372E+02 -0.18992059971E+03  0.19263254992E+03  0.00000000000E+00 0. -1.
<mgrwt>
<rscale>  0 0.27972486E+02</rscale>
<asrwt>0</asrwt>
<pdfrwt beam="1">  1        2 0.32592020E+00 0.24293304E+02</pdfrwt>
<pdfrwt beam="2">  1        2 0.15875094E+00 0.32208873E+02</pdfrwt>
<totfact> 0.37780636E+01</totfact>
</mgrwt>
</event>
<event>
13    1  0.2101801E-008  0.1326965E+03  0.7546771E-02  0.1249272E+00
          2   -1    0    0  502    0  0.00000000000E+00  0.00000000000E+00  0.25062141427E+04  0.25062141427E+04  0.00000000000E+00 0. -1.
          2   -1    0    0  503    0 -0.00000000000E+00 -0.00000000000E+00 -0.68567569894E+03  0.68567569894E+03  0.00000000000E+00 0. -1.
         24    2    1    2    0    0  0.20003051475E+02 -0.30538831354E+02 -0.19114004600E+03  0.21090734022E+03  0.81330478204E+02 0.  0.
         25    2    1    2    0    0 -0.23721240568E+03 -0.15443395284E+03  0.77754097537E+03  0.83684737739E+03  0.12499597382E+03 0.  0.
         24    2    1    2    0    0 -0.31805570546E+02  0.13183287238E+03  0.18781765372E+03  0.24356153274E+03  0.75201387117E+02 0.  0.
        -13    1    3    3    0    0  0.34544509040E+02  0.13314778211E+02 -0.48781505806E+02  0.61239217273E+02  0.00000000000E+00 0.  1.
         14    1    3    3    0    0 -0.14541457565E+02 -0.43853609564E+02 -0.14235854020E+03  0.14966812295E+03  0.00000000000E+00 0. -1.
        -13    1    5    5    0    0 -0.52521311671E+02  0.11979816651E+03  0.15293751813E+03  0.20124605172E+03  0.00000000000E+00 0.  1.
         14    1    5    5    0    0  0.20715741125E+02  0.12034705870E+02  0.34880135589E+02  0.42315481026E+02  0.00000000000E+00 0. -1.
          5    1    4    4  501    0  0.28156084839E+01  0.23952979728E+01  0.11197218926E+03  0.11213173624E+03  0.47000000000E+01 0. -1.
         -5    1    4    4    0  501 -0.24002801416E+03 -0.15682925081E+03  0.66556878610E+03  0.72471564115E+03  0.47000000000E+01 0. -1.
          1    1    1    2  502    0  0.88248108725E+02 -0.50883994218E+02  0.14501083947E+04  0.14536819687E+04  0.00000000000E+00 0. -1.
          1    1    1    2  503    0  0.16076681602E+03  0.10402390603E+03 -0.40378853404E+03  0.44689162264E+03  0.00000000000E+00 0. -1.
<mgrwt>
<rscale>  0 0.11633292E+03</rscale>
<asrwt>0</asrwt>
<pdfrwt beam="1">  1        2 0.36856090E+00 0.10198726E+03</pdfrwt>
<pdfrwt beam="2">  1        2 0.10083466E+00 0.13269646E+03</pdfrwt>
<totfact> 0.37335282E+01</totfact>
</mgrwt>
</event>
<event>
13    1  0.2101801E-008  0.1456008E+03  0.7546771E-02  0.1335352E+00
          2   -1    0    0  503    0  0.00000000000E+00  0.00000000000E+00  0.20437432956E+04  0.20437432956E+04  0.00000000000E+00 0. -1.
         -3   -1    0    0    0  501 -0.00000000000E+00 -0.00000000000E+00 -0.25572400516E+04  0.25572400516E+04  0.00000000000E+00 0.  1.
         24    2    1    2    0    0  0.20101950409E+03  0.20753438074E+03 -0.43384933069E+03  0.52786938932E+03  0.83315606124E+02 0.  0.
         25    2    1    2    0    0 -0.31118332225E+03 -0.20958449588E+03  0.64917934710E+03  0.76014496282E+03  0.12500327525E+03 0.  0.
         24    2    1    2    0    0  0.19958680083E+03 -0.56590973594E+02 -0.43435007563E+03  0.48806260573E+03  0.80670251968E+02 0.  0.
        -13    1    5    5    0    0  0.15681860361E+03 -0.68231500875E+01 -0.30681004128E+03  0.34463173279E+03  0.00000000000E+00 0.  1.
         14    1    5    5    0    0  0.42768197222E+02 -0.49767823506E+02 -0.12754003435E+03  0.14343087294E+03  0.00000000000E+00 0. -1.
        -13    1    3    3    0    0  0.19424384068E+03  0.17014569128E+03 -0.40432859201E+03  0.47975184858E+03  0.00000000000E+00 0.  1.
         14    1    3    3    0    0  0.67756634128E+01  0.37388689459E+02 -0.29520738687E+02  0.48117540739E+02  0.00000000000E+00 0. -1.
          5    1    4    4  502    0 -0.22502001184E+03 -0.12584756568E+03  0.32820356730E+03  0.41738625649E+03  0.47000000000E+01 0. -1.
         -5    1    4    4    0  502 -0.86163310412E+02 -0.83736930200E+02  0.32097577981E+03  0.34275870633E+03  0.47000000000E+01 0. -1.
          1    1    1    2  503    0  0.22094644289E+02 -0.35240149132E+02  0.12614652262E+04  0.12621507669E+04  0.00000000000E+00 0. -1.
         -4    1    1    2    0  501 -0.11151762696E+03  0.93881237872E+02 -0.15559419230E+04  0.15627556225E+04  0.00000000000E+00 0.  1.
<mgrwt>
<rscale>  0 0.77820864E+02</rscale>
<asrwt>0</asrwt>
<pdfrwt beam="1">  1        2 0.30055049E+00 0.41593767E+02</pdfrwt>
<pdfrwt beam="2">  1       -3 0.37606471E+00 0.14560083E+03</pdfrwt>
<totfact> 0.10855955E-01</totfact>
</mgrwt>
</event>
<event>
13    1  0.2277916E-008  0.4676395E+02  0.7546771E-02  0.1534126E+00
          2   -1    0    0  502    0  0.00000000000E+00  0.00000000000E+00  0.27459095116E+04  0.27459095116E+04  0.00000000000E+00 0. -1.
          2   -1    0    0  503    0 -0.00000000000E+00 -0.00000000000E+00 -0.32028158270E+04  0.32028158270E+04  0.00000000000E+00 0. -1.
         24    2    1    2    0    0 -0.14613897511E+04  0.33406318625E+03 -0.24970211328E+03  0.15217168904E+04  0.77543098423E+02 0.  0.
         25    2    1    2    0    0 -0.28031531095E+03 -0.37664368834E+03  0.43161576177E+03  0.64988837112E+03  0.12500235035E+03 0.  0.
         24    2    1    2    0    0  0.16906778727E+04  0.69508299900E+02 -0.16544697066E+03  0.17009355043E+04  0.50850925002E+02 0.  0.
        -11    1    3    3    0    0 -0.11097459178E+04  0.22184950975E+03 -0.17578889966E+03  0.11452750518E+04  0.00000000000E+00 0.  1.
         12    1    3    3    0    0 -0.35164383328E+03  0.11221367650E+03 -0.73913213618E+02  0.37644183857E+03  0.00000000000E+00 0. -1.
        -13    1    5    5    0    0  0.92519735503E+03  0.23247042600E+02 -0.11112203133E+03  0.93213661906E+03  0.00000000000E+00 0.  1.
         14    1    5    5    0    0  0.76548051772E+03  0.46261257300E+02 -0.54324939333E+02  0.76879888525E+03  0.00000000000E+00 0. -1.
          5    1    4    4  501    0 -0.16274458496E+03 -0.15382292645E+03  0.13848141954E+03  0.26333721004E+03  0.47000000000E+01 0.  1.
         -5    1    4    4    0  501 -0.11757072599E+03 -0.22282076189E+03  0.29313434223E+03  0.38655116108E+03  0.47000000000E+01 0.  1.
          1    1    1    2  502    0  0.25114208233E+02 -0.39446572730E+02  0.80056098123E+03  0.80192558272E+03  0.00000000000E+00 0. -1.
          1    1    1    2  503    0  0.25912981033E+02  0.12518774919E+02 -0.12739339745E+04  0.12742589901E+04  0.00000000000E+00 0. -1.
<mgrwt>
<rscale>  0 0.36685098E+02</rscale>
<asrwt>0</asrwt>
<pdfrwt beam="1">  1        2 0.40381022E+00 0.46763947E+02</pdfrwt>
<pdfrwt beam="2">  1        2 0.47100233E+00 0.28778504E+02</pdfrwt>
<totfact> 0.19247964E+00</totfact>
</mgrwt>
</event>
<event>
13    1  0.2101801E-008  0.6162188E+02  0.7546771E-02  0.1475076E+00
          2   -1    0    0  503    0  0.00000000000E+00  0.00000000000E+00  0.17749096824E+04  0.17749096824E+04  0.00000000000E+00 0. -1.
          2   -1    0    0  502    0 -0.00000000000E+00 -0.00000000000E+00 -0.18154252749E+04  0.18154252749E+04  0.00000000000E+00 0. -1.
         24    2    1    2    0    0  0.23162081257E+03  0.27636997817E+03 -0.66885458954E+03  0.76402017121E+03  0.79572573227E+02 0.  0.
         25    2    1    2    0    0 -0.15491278321E+03 -0.30155981903E+03 -0.22253117169E+03  0.42435970950E+03  0.12499898326E+03 0.  0.
         24    2    1    2    0    0 -0.96388189439E+02 -0.46946335173E+02 -0.64896063322E+03  0.66265877407E+03  0.80449399812E+02 0.  0.
        -11    1    3    3    0    0  0.64834082895E+02  0.72299420869E+02 -0.26036645437E+03  0.27788730652E+03  0.00000000000E+00 0.  1.
         12    1    3    3    0    0  0.16678672968E+03  0.20407055731E+03 -0.40848813517E+03  0.48613286469E+03  0.00000000000E+00 0. -1.
        -11    1    5    5    0    0  0.31313570100E+01  0.15967020380E+02 -0.74257150777E+02  0.76018915922E+02  0.00000000000E+00 0.  1.
         12    1    5    5    0    0 -0.99519546449E+02 -0.62913355553E+02 -0.57470348244E+03  0.58663985814E+03  0.00000000000E+00 0. -1.
          5    1    4    4  501    0 -0.14345211063E+01 -0.10060885827E+03 -0.25882114391E+02  0.10400083682E+03  0.47000000000E+01 0. -1.
         -5    1    4    4    0  501 -0.15347826210E+03 -0.20095096076E+03 -0.19664905730E+03  0.32035887268E+03  0.47000000000E+01 0. -1.
          1    1    1    2  502    0 -0.20527438436E+02  0.25441917225E+02 -0.11690347146E+03  0.12138817290E+03  0.00000000000E+00 0. -1.
          1    1    1    2  503    0  0.40207598510E+02  0.46694258806E+02  0.16167342734E+04  0.16179081296E+04  0.00000000000E+00 0. -1.
<mgrwt>
<rscale>  0 0.44882605E+02</rscale>
<asrwt>0</asrwt>
<pdfrwt beam="1">  1        2 0.26101613E+00 0.61621878E+02</pdfrwt>
<pdfrwt beam="2">  1        2 0.26697431E+00 0.32690471E+02</pdfrwt>
<totfact> 0.24120079E+01</totfact>
</mgrwt>
</event>
<event>
13    1  0.2101801E-008  0.2589444E+03  0.7546771E-02  0.1207297E+00
          2   -1    0    0  502    0  0.00000000000E+00  0.00000000000E+00  0.27640681558E+04  0.27640681558E+04  0.00000000000E+00 0. -1.
          2   -1    0    0  503    0 -0.00000000000E+00 -0.00000000000E+00 -0.21739221557E+04  0.21739221557E+04  0.00000000000E+00 0. -1.
         24    2    1    2    0    0  0.22071938358E+02  0.10500669495E+03 -0.12306276294E+03  0.18394271296E+03  0.84716595665E+02 0.  0.
         25    2    1    2    0    0  0.24113082038E+03 -0.36031865639E+03  0.42683010494E+03  0.62110601734E+03  0.12496055224E+03 0.  0.
         24    2    1    2    0    0 -0.94163532841E+02 -0.22400919358E+02 -0.80080148744E+01  0.12497379615E+03  0.78649534746E+02 0.  0.
        -11    1    5    5    0    0  0.18876082814E+01  0.17772474913E+02 -0.10689628911E+02  0.20825275408E+02  0.00000000000E+00 0.  1.
         12    1    5    5    0    0 -0.96051141122E+02 -0.40173394271E+02  0.26816140371E+01  0.10414852074E+03  0.00000000000E+00 0. -1.
        -11    1    3    3    0    0  0.47558984210E+02  0.51207847390E+02 -0.36384827296E+02  0.78790584912E+02  0.00000000000E+00 0.  1.
         12    1    3    3    0    0 -0.25487045852E+02  0.53798847555E+02 -0.86677935649E+02  0.10515212805E+03  0.00000000000E+00 0. -1.
          5    1    4    4  501    0  0.12403381494E+02  0.71849778865E+01  0.32084063186E+01  0.15422439847E+02  0.47000000000E+01 0.  1.
         -5    1    4    4    0  501  0.22872743889E+03 -0.36750363427E+03  0.42362169862E+03  0.60568357749E+03  0.47000000000E+01 0.  1.
          1    1    1    2  502    0 -0.14069308925E+03  0.20212884326E+03  0.21432450788E+04  0.21573479280E+04  0.00000000000E+00 0. -1.
          1    1    1    2  503    0 -0.28346136646E+02  0.75584037536E+02 -0.18488584059E+04  0.18506198570E+04  0.00000000000E+00 0. -1.
<mgrwt>
<rscale>  0 0.14457927E+03</rscale>
<asrwt>0</asrwt>
<pdfrwt beam="1">  1        2 0.40648061E+00 0.25894439E+03</pdfrwt>
<pdfrwt beam="2">  1        2 0.31969443E+00 0.80724533E+02</pdfrwt>
<totfact> 0.40769944E+00</totfact>
</mgrwt>
</event>
<event>
13    1  0.2101801E-008  0.5782040E+02  0.7546771E-02  0.1513763E+00
          4   -1    0    0  503    0 -0.00000000000E+00  0.00000000000E+00  0.56654031807E+03  0.56654031807E+03  0.00000000000E+00 0. -1.
          2   -1    0    0  502    0  0.00000000000E+00 -0.00000000000E+00 -0.12057445109E+04  0.12057445109E+04  0.00000000000E+00 0. -1.
         24    2    1    2    0    0  0.75615992141E+02 -0.47271284735E+02  0.19277769668E+03  0.22702246285E+03  0.80147399671E+02 0.  0.
         25    2    1    2    0    0  0.31248715630E+02  0.95300366434E+02 -0.35878543913E+03  0.39295153893E+03  0.12500111415E+03 0.  0.
         24    2    1    2    0    0 -0.11458279685E+03 -0.80411073230E+02  0.59604319911E+02  0.17263489711E+03  0.81578028386E+02 0.  0.
        -11    1    3    3    0    0 -0.67681780408E+01  0.10330550949E+02  0.37152543683E+01  0.12896962120E+02  0.00000000000E+00 0.  1.
         12    1    3    3    0    0  0.82384170182E+02 -0.57601835684E+02  0.18906244231E+03  0.21412550073E+03  0.00000000000E+00 0. -1.
        -13    1    5    5    0    0 -0.29867816066E+02 -0.55308079280E+02 -0.51836289471E+01  0.63070913100E+02  0.00000000000E+00 0.  1.
         14    1    5    5    0    0 -0.84714980782E+02 -0.25102993950E+02  0.64787948858E+02  0.10956398401E+03  0.00000000000E+00 0. -1.
          5    1    4    4  501    0 -0.26137947403E+02  0.55058173903E+02 -0.28336574005E+03  0.28988416211E+03  0.47000000000E+01 0. -1.
         -5    1    4    4    0  501  0.57386663033E+02  0.40242192530E+02 -0.75419699080E+02  0.10306737681E+03  0.47000000000E+01 0. -1.
          1    1    1    2  502    0  0.37611052583E-01  0.57902628263E+02 -0.75433012670E+03  0.75654917607E+03  0.00000000000E+00 0. -1.
          3    1    1    2  503    0  0.76804780242E+01 -0.25520636732E+02  0.22152935637E+03  0.22312675406E+03  0.00000000000E+00 0. -1.
<mgrwt>
<rscale>  0 0.39255442E+02</rscale>
<asrwt>0</asrwt>
<pdfrwt beam="2">  1        2 0.17731537E+00 0.57820399E+02</pdfrwt>
<pdfrwt beam="1">  1        4 0.83314752E-01 0.26651316E+02</pdfrwt>
<totfact> 0.13903365E+01</totfact>
</mgrwt>
</event>
<event>
13    1  0.2101801E-008  0.1008337E+03  0.7546771E-02  0.1352798E+00
         -1   -1    0    0    0  501 -0.00000000000E+00  0.00000000000E+00  0.21587908063E+04  0.21587908063E+04  0.00000000000E+00 0.  1.
          2   -1    0    0  503    0  0.00000000000E+00 -0.00000000000E+00 -0.38829082658E+04  0.38829082658E+04  0.00000000000E+00 0. -1.
         24    2    1    2    0    0  0.22397458216E+03 -0.79748216505E+03  0.68890209729E+03  0.10793784283E+04  0.65797224149E+02 0.  0.
         25    2    1    2    0    0 -0.28226566213E+03  0.39316441024E+03 -0.22636851435E+04  0.23182206089E+04  0.12499682001E+03 0.  0.
         24    2    1    2    0    0  0.19123457230E+03  0.46405782032E+03 -0.18533913780E+03  0.54098433977E+03  0.79957098693E+02 0.  0.
        -13    1    3    3    0    0  0.12603918906E+03 -0.33117655985E+03  0.28485791596E+03  0.45465132053E+03  0.00000000000E+00 0.  1.
         14    1    3    3    0    0  0.97935393104E+02 -0.46630560520E+03  0.40404418133E+03  0.62472710773E+03  0.00000000000E+00 0. -1.
        -13    1    5    5    0    0  0.12193073471E+03  0.31878142576E+03 -0.16384675000E+03  0.37859537631E+03  0.00000000000E+00 0.  1.
         14    1    5    5    0    0  0.69303837588E+02  0.14527639456E+03 -0.21492387807E+02  0.16238896346E+03  0.00000000000E+00 0. -1.
          5    1    4    4  502    0 -0.18402242862E+03  0.33866565716E+03 -0.16614812382E+04  0.17056085942E+04  0.47000000000E+01 0. -1.
         -5    1    4    4    0  502 -0.98243233503E+02  0.54498753083E+02 -0.60220390530E+03  0.61261201471E+03  0.47000000000E+01 0. -1.
          1    1    1    2  503    0 -0.81259591334E+02 -0.59542824836E+02 -0.10304734300E+04  0.10353858986E+04  0.00000000000E+00 0. -1.
         -2    1    1    2    0  501 -0.51683901005E+02 -0.19724067362E+00  0.10664781545E+04  0.10677297966E+04  0.00000000000E+00 0.  1.
<mgrwt>
<rscale>  0 0.72190835E+02</rscale>
<asrwt>0</asrwt>
<pdfrwt beam="2">  1        2 0.57101591E+00 0.10083370E+03</pdfrwt>
<pdfrwt beam="1">  1       -1 0.31746924E+00 0.51684277E+02</pdfrwt>
<totfact> 0.38022995E-02</totfact>
</mgrwt>
</event>
<event>
13    1  0.2101801E-008  0.1461598E+03  0.7546771E-02  0.1315542E+00
          2   -1    0    0  502    0  0.00000000000E+00  0.00000000000E+00  0.18161304565E+04  0.18161304565E+04  0.00000000000E+00 0. -1.
          2   -1    0    0  503    0 -0.00000000000E+00 -0.00000000000E+00 -0.21448602441E+03  0.21448602441E+03  0.00000000000E+00 0. -1.
         24    2    1    2    0    0  0.49785111607E+02  0.12230867699E+03 -0.17085622421E+02  0.15592091807E+03  0.81126101807E+02 0.  0.
         25    2    1    2    0    0 -0.18628443682E+03 -0.15521019554E+03  0.76913974154E+03  0.81608449495E+03  0.12500345869E+03 0.  0.
         24    2    1    2    0    0  0.44457163657E+02 -0.71839395506E+01  0.58645767441E+02  0.10869208068E+03  0.79665513084E+02 0.  0.
        -11    1    3    3    0    0  0.78560944216E+01  0.15253820572E+02  0.27658463304E+02  0.32548238876E+02  0.00000000000E+00 0.  1.
         12    1    3    3    0    0  0.41929017185E+02  0.10705485642E+03 -0.44744085725E+02  0.12337267920E+03  0.00000000000E+00 0. -1.
        -13    1    5    5    0    0  0.33282065194E+02 -0.41789488229E+02  0.45002379331E+02  0.69851781190E+02  0.00000000000E+00 0.  1.
         14    1    5    5    0    0  0.11175098462E+02  0.34605548678E+02  0.13643388110E+02  0.38840299485E+02  0.00000000000E+00 0. -1.
          5    1    4    4  501    0 -0.14725215635E+03 -0.77718794040E+02  0.63322738197E+03  0.65476897893E+03  0.47000000000E+01 0. -1.
         -5    1    4    4    0  501 -0.39032280477E+02 -0.77491401496E+02  0.13591235957E+03  0.16131551602E+03  0.47000000000E+01 0. -1.
          1    1    1    2  502    0  0.14139351245E+03  0.38297168385E+02  0.85588726272E+03  0.86833277316E+03  0.00000000000E+00 0. -1.
          1    1    1    2  503    0 -0.49351350896E+02  0.17882897107E+01 -0.64942717157E+02  0.81586214075E+02  0.00000000000E+00 0. -1.
<mgrwt>
<rscale>  0 0.84958342E+02</rscale>
<asrwt>0</asrwt>
<pdfrwt beam="1">  1        2 0.26707800E+00 0.14615985E+03</pdfrwt>
<pdfrwt beam="2">  1        2 0.31542063E-01 0.49383740E+02</pdfrwt>
<totfact> 0.26904988E+02</totfact>
</mgrwt>
</event>
<event>
13    1  0.2101801E-008  0.9096680E+02  0.7546771E-02  0.1361867E+00
          2   -1    0    0  503    0  0.00000000000E+00  0.00000000000E+00  0.47433769841E+03  0.47433769841E+03  0.00000000000E+00 0. -1.
         -3   -1    0    0    0  501 -0.00000000000E+00 -0.00000000000E+00 -0.80958138680E+03  0.80958138680E+03  0.00000000000E+00 0.  1.
         24    2    1    2    0    0  0.73045050960E+02 -0.49013997847E+02 -0.14467946570E+03  0.18942376317E+03  0.84919154512E+02 0.  0.
         25    2    1    2    0    0  0.18821022829E+02  0.28014404892E+02 -0.28363678702E+03  0.31178767868E+03  0.12499076703E+03 0.  0.
         24    2    1    2    0    0  0.68957398403E+02 -0.18710984845E+02  0.97979782564E+02  0.14552403129E+03  0.80448630463E+02 0.  0.
        -13    1    5    5    0    0  0.72214851786E+02 -0.41180160986E+02  0.86903407811E+02  0.12026218344E+03  0.00000000000E+00 0.  1.
         14    1    5    5    0    0 -0.32574533831E+01  0.22469176141E+02  0.11076374753E+02  0.25261847848E+02  0.00000000000E+00 0. -1.
        -13    1    3    3    0    0  0.56448750108E+01  0.22582478594E+02 -0.20419049304E+02  0.30964019891E+02  0.00000000000E+00 0.  1.
         14    1    3    3    0    0  0.67400175950E+02 -0.71596476441E+02 -0.12426041640E+03  0.15845974328E+03  0.00000000000E+00 0. -1.
          5    1    4    4  502    0 -0.23655579111E+02 -0.16999544285E+02 -0.99326692041E+01  0.31133885824E+02  0.47000000000E+01 0. -1.
         -5    1    4    4    0  502  0.42476601940E+02  0.45013949177E+02 -0.27370411782E+03  0.28065379285E+03  0.47000000000E+01 0. -1.
          1    1    1    2  503    0 -0.13487057030E+03 -0.65804092826E+01  0.29931675547E+03  0.32836548635E+03  0.00000000000E+00 0. -1.
         -4    1    1    2    0  501 -0.25952901895E+02  0.46290987082E+02 -0.30422397370E+03  0.30881812572E+03  0.00000000000E+00 0.  1.
<mgrwt>
<rscale>  0 0.69480891E+02</rscale>
<asrwt>0</asrwt>
<pdfrwt beam="1">  1        2 0.69755544E-01 0.90966803E+02</pdfrwt>
<pdfrwt beam="2">  1       -3 0.11905609E+00 0.53069846E+02</pdfrwt>
<totfact> 0.25862668E+01</totfact>
</mgrwt>
</event>
<event>
13    1  0.2101801E-008  0.8821938E+02  0.7546771E-02  0.1313620E+00
         -1   -1    0    0    0  501 -0.00000000000E+00  0.00000000000E+00  0.14697426099E+04  0.14697426099E+04  0.00000000000E+00 0.  1.
          2   -1    0    0  503    0  0.00000000000E+00 -0.00000000000E+00 -0.18692293212E+04  0.18692293212E+04  0.00000000000E+00 0. -1.
         24    2    1    2    0    0 -0.73298620854E+02 -0.13202842138E+03  0.63869697122E+03  0.66092936214E+03  0.78035945707E+02 0.  0.
         25    2    1    2    0    0 -0.97488389176E+02  0.28590730786E+03 -0.96816147856E+02  0.34094708859E+03  0.12499830406E+03 0.  0.
         24    2    1    2    0    0  0.49590909828E+02 -0.12759808763E+03  0.15704213087E+03  0.22118296795E+03  0.74290942513E+02 0.  0.
        -11    1    3    3    0    0 -0.63900278358E+02 -0.12511143801E+03  0.63210206714E+03  0.64752539779E+03  0.00000000000E+00 0.  1.
         12    1    3    3    0    0 -0.93983424955E+01 -0.69169833660E+01  0.65949040788E+01  0.13403964352E+02  0.00000000000E+00 0. -1.
        -13    1    5    5    0    0  0.24977370323E+02 -0.12797264798E+03  0.12362174713E+03  0.17967527383E+03  0.00000000000E+00 0.  1.
         14    1    5    5    0    0  0.24613539505E+02  0.37456035549E+00  0.33420383738E+02  0.41507694126E+02  0.00000000000E+00 0. -1.
          5    1    4    4  502    0 -0.40414893771E+02  0.23955118093E+03 -0.10892770245E+03  0.26628080345E+03  0.47000000000E+01 0. -1.
         -5    1    4    4    0  502 -0.57073495405E+02  0.46356126930E+02  0.12111554596E+02  0.74666285138E+02  0.47000000000E+01 0. -1.
          1    1    1    2  503    0  0.69809842763E+02  0.45349649630E+02 -0.16022535062E+04  0.16044146294E+04  0.00000000000E+00 0. -1.
         -2    1    1    2    0  501  0.51386257439E+02 -0.71630448481E+02  0.50384384063E+03  0.51149788303E+03  0.00000000000E+00 0.  1.
<mgrwt>
<rscale>  0 0.85696952E+02</rscale>
<asrwt>0</asrwt>
<pdfrwt beam="2">  1        2 0.27488666E+00 0.83246651E+02</pdfrwt>
<pdfrwt beam="1">  1       -1 0.21613862E+00 0.88219376E+02</pdfrwt>
<totfact> 0.18030948E+00</totfact>
</mgrwt>
</event>
<event>
13    1  0.2101801E-008  0.1545486E+03  0.7546771E-02  0.1358963E+00
          2   -1    0    0  503    0  0.00000000000E+00  0.00000000000E+00  0.18537238040E+04  0.18537238040E+04  0.00000000000E+00 0. -1.
          2   -1    0    0  502    0 -0.00000000000E+00 -0.00000000000E+00 -0.10175173964E+04  0.10175173964E+04  0.00000000000E+00 0. -1.
         24    2    1    2    0    0  0.48458186237E+03  0.75548184724E+02 -0.23439590794E+03  0.54956348948E+03  0.80941199346E+02 0.  0.
         25    2    1    2    0    0 -0.16317945533E+03  0.39348462153E+02  0.45695670532E+03  0.50261982493E+03  0.12506566978E+03 0.  0.
         24    2    1    2    0    0 -0.22244282170E+03 -0.31724743777E+02  0.10709886309E+03  0.26155390246E+03  0.80330623810E+02 0.  0.
        -11    1    3    3    0    0  0.11817313315E+03  0.49837248662E+02 -0.79756798536E+02  0.15102909543E+03  0.00000000000E+00 0.  1.
         12    1    3    3    0    0  0.36640872922E+03  0.25710936062E+02 -0.15463910940E+03  0.39853439405E+03  0.00000000000E+00 0. -1.
        -11    1    5    5    0    0 -0.18078775941E+03 -0.10046303626E+02  0.50432005581E+02  0.18795885016E+03  0.00000000000E+00 0.  1.
         12    1    5    5    0    0 -0.41655062296E+02 -0.21678440151E+02  0.56666857513E+02  0.73595052297E+02  0.00000000000E+00 0. -1.
          5    1    4    4  501    0 -0.28655068375E+02  0.61520890494E+02  0.10460296206E+03  0.12477901499E+03  0.47000000000E+01 0.  1.
         -5    1    4    4    0  501 -0.13452438695E+03 -0.22172428341E+02  0.35235374326E+03  0.37784080993E+03  0.47000000000E+01 0.  1.
          1    1    1    2  502    0 -0.13096478281E+03 -0.82748281446E+02 -0.51380449379E+03  0.53665082713E+03  0.00000000000E+00 0. -1.
          1    1    1    2  503    0  0.32005197462E+02 -0.42362165550E+00  0.10203512409E+04  0.10208531564E+04  0.00000000000E+00 0. -1.
<mgrwt>
<rscale>  0 0.70333428E+02</rscale>
<asrwt>0</asrwt>
<pdfrwt beam="1">  1        2 0.27260644E+00 0.32008001E+02</pdfrwt>
<pdfrwt beam="2">  1        2 0.14963491E+00 0.15454858E+03</pdfrwt>
<totfact> 0.53014486E+01</totfact>
</mgrwt>
</event>
<event>
13    1  0.2101801E-008  0.1313304E+03  0.7546771E-02  0.1247562E+00
          4   -1    0    0  503    0 -0.00000000000E+00  0.00000000000E+00  0.33297681338E+04  0.33297681338E+04  0.00000000000E+00 0. -1.
          2   -1    0    0  502    0  0.00000000000E+00 -0.00000000000E+00 -0.27142022915E+04  0.27142022915E+04  0.00000000000E+00 0. -1.
         24    2    1    2    0    0  0.92407266728E+02  0.17314464199E+02  0.43500284676E+03  0.45221725457E+03  0.80212686170E+02 0.  0.
         25    2    1    2    0    0  0.14525750876E+03 -0.12492284155E+03 -0.11042962078E+04  0.11277418005E+04  0.12500397534E+03 0.  0.
         24    2    1    2    0    0  0.80175889350E+02 -0.38253370456E+02  0.51360892760E+02  0.13128276726E+03  0.81888522341E+02 0.  0.
        -11    1    3    3    0    0  0.76331870264E+02 -0.77584358684E+01  0.18261641149E+03  0.19807953324E+03  0.00000000000E+00 0.  1.
         12    1    3    3    0    0  0.16075396464E+02  0.25072900067E+02  0.25238643527E+03  0.25413772132E+03  0.00000000000E+00 0. -1.
        -13    1    5    5    0    0 -0.15727874537E+02  0.36277964400E+01  0.59032485554E+01  0.17186485620E+02  0.00000000000E+00 0.  1.
         14    1    5    5    0    0  0.95903763888E+02 -0.41881166896E+02  0.45457644205E+02  0.11409628164E+03  0.00000000000E+00 0. -1.
          5    1    4    4  501    0  0.49357249789E+02  0.20590746750E+02 -0.30033581773E+03  0.30509639521E+03  0.47000000000E+01 0.  1.
         -5    1    4    4    0  501  0.95900258975E+02 -0.14551358830E+03 -0.80396039004E+03  0.82264540526E+03  0.47000000000E+01 0.  1.
          1    1    1    2  502    0 -0.13274742910E+03  0.32933693062E+02 -0.15423613745E+04  0.15484137424E+04  0.00000000000E+00 0. -1.
          3    1    1    2  503    0 -0.18509323575E+03  0.11292805475E+03  0.27758596851E+04  0.27843148606E+04  0.00000000000E+00 0. -1.
<mgrwt>
<rscale>  0 0.11733361E+03</rscale>
<asrwt>0</asrwt>
<pdfrwt beam="2">  1        2 0.39914739E+00 0.10482857E+03</pdfrwt>
<pdfrwt beam="1">  1        4 0.48967179E+00 0.13133037E+03</pdfrwt>
<totfact> 0.46083808E-03</totfact>
</mgrwt>
</event>
<event>
13    1  0.2101801E-008  0.1153047E+03  0.7546771E-02  0.1298640E+00
          2   -1    0    0  502    0  0.00000000000E+00  0.00000000000E+00  0.17632540200E+04  0.17632540200E+04  0.00000000000E+00 0. -1.
          2   -1    0    0  503    0 -0.00000000000E+00 -0.00000000000E+00 -0.34807158393E+03  0.34807158393E+03  0.00000000000E+00 0. -1.
         24    2    1    2    0    0  0.21179616259E+02  0.15009825722E+03 -0.12746548010E+02  0.17250130230E+03  0.81339792490E+02 0.  0.
         25    2    1    2    0    0 -0.62386875714E+02 -0.33651682766E+03  0.12288887195E+04  0.12817679971E+04  0.12500406374E+03 0.  0.
         24    2    1    2    0    0 -0.96519603145E+02  0.60684840225E+02  0.81775780761E+01  0.13932332035E+03  0.79658214807E+02 0.  0.
        -11    1    5    5    0    0 -0.10127364101E+02  0.40714869197E+02 -0.19732601681E+02  0.46364206522E+02  0.00000000000E+00 0.  1.
         12    1    5    5    0    0 -0.86392239044E+02  0.19969971028E+02  0.27910179757E+02  0.92959113829E+02  0.00000000000E+00 0. -1.
        -11    1    3    3    0    0 -0.30274452808E+02  0.39144478849E+02  0.44749967493E+00  0.49487705272E+02  0.00000000000E+00 0.  1.
         12    1    3    3    0    0  0.51454069067E+02  0.11095377838E+03 -0.13194047685E+02  0.12301359703E+03  0.00000000000E+00 0. -1.
          5    1    4    4  501    0 -0.27542677986E+02 -0.41162467208E+02  0.73833933396E+02  0.89030823528E+02  0.47000000000E+01 0.  1.
         -5    1    4    4    0  501 -0.34844197728E+02 -0.29535436046E+03  0.11550547861E+04  0.11927371736E+04  0.47000000000E+01 0.  1.
          1    1    1    2  502    0  0.59305482133E+02  0.42610637438E+02  0.32982733106E+03  0.33781485306E+03  0.00000000000E+00 0. -1.
          1    1    1    2  503    0  0.78421380467E+02  0.83123092777E+02 -0.13896464455E+03  0.17991813111E+03  0.00000000000E+00 0. -1.
<mgrwt>
<rscale>  0 0.91761924E+02</rscale>
<asrwt>0</asrwt>
<pdfrwt beam="1">  1        2 0.25930206E+00 0.73026068E+02</pdfrwt>
<pdfrwt beam="2">  1        2 0.51186999E-01 0.11530472E+03</pdfrwt>
<totfact> 0.18575130E+02</totfact>
</mgrwt>
</event>
<event>
13    1  0.2101801E-008  0.1736355E+03  0.7546771E-02  0.1278846E+00
          2   -1    0    0  502    0  0.00000000000E+00  0.00000000000E+00  0.18105672449E+04  0.18105672449E+04  0.00000000000E+00 0. -1.
          2   -1    0    0  503    0 -0.00000000000E+00 -0.00000000000E+00 -0.22527456877E+04  0.22527456877E+04  0.00000000000E+00 0. -1.
         24    2    1    2    0    0 -0.14762519205E+03  0.36166879557E+02 -0.23233498181E+03  0.28891708353E+03  0.79951841000E+02 0.  0.
         25    2    1    2    0    0  0.99281937661E+02  0.25811871655E+02  0.54205450590E+03  0.56566020992E+03  0.12500091944E+03 0.  0.
         24    2    1    2    0    0 -0.11722830451E+02  0.62361275538E+02  0.14096888951E+03  0.17379488666E+03  0.79410839179E+02 0.  0.
        -11    1    3    3    0    0 -0.52017269348E+00  0.23606229395E+01 -0.59100652741E+02  0.59150065720E+02  0.00000000000E+00 0.  1.
         12    1    3    3    0    0 -0.14710501935E+03  0.33806256617E+02 -0.17323432907E+03  0.22976701781E+03  0.00000000000E+00 0. -1.
        -13    1    5    5    0    0 -0.28083195200E+02  0.35267691227E+01  0.89701381329E+02  0.94060840765E+02  0.00000000000E+00 0.  1.
         14    1    5    5    0    0  0.16360364749E+02  0.58834506416E+02  0.51267508186E+02  0.79734045899E+02  0.00000000000E+00 0. -1.
          5    1    4    4  501    0  0.94987480999E+02  0.37238764711E+02  0.54302220019E+03  0.55254370600E+03  0.47000000000E+01 0.  1.
         -5    1    4    4    0  501  0.42944566623E+01 -0.11426893056E+02 -0.96769428861E+00  0.13116503924E+02  0.47000000000E+01 0.  1.
          1    1    1    2  502    0  0.32477007219E+02  0.48527811782E+02  0.10663356008E+04  0.10679331992E+04  0.00000000000E+00 0. -1.
          1    1    1    2  503    0  0.27589077618E+02 -0.17286783853E+03 -0.19592024571E+04  0.19670075533E+04  0.00000000000E+00 0. -1.
<mgrwt>
<rscale>  0 0.10069280E+03</rscale>
<asrwt>0</asrwt>
<pdfrwt beam="1">  1        2 0.26625989E+00 0.58392675E+02</pdfrwt>
<pdfrwt beam="2">  1        2 0.33128613E+00 0.17363549E+03</pdfrwt>
<totfact> 0.12048876E+01</totfact>
</mgrwt>
</event>
<event>
13    1  0.2101801E-008  0.1107391E+03  0.7546771E-02  0.1270456E+00
          2   -1    0    0  502    0  0.00000000000E+00  0.00000000000E+00  0.27022693714E+04  0.27022693714E+04  0.00000000000E+00 0. -1.
          2   -1    0    0  503    0 -0.00000000000E+00 -0.00000000000E+00 -0.21012869455E+04  0.21012869455E+04  0.00000000000E+00 0. -1.
         24    2    1    2    0    0  0.10301240121E+03 -0.12289507350E+03  0.71959791500E+02  0.19299141342E+03  0.79703953270E+02 0.  0.
         25    2    1    2    0    0 -0.11310480177E+03  0.19652006147E+03 -0.27113543365E+02  0.26033088238E+03  0.12499677334E+03 0.  0.
         24    2    1    2    0    0 -0.22200406006E+02  0.29506422773E+01  0.33343188200E+03  0.34360033937E+03  0.79892483803E+02 0.  0.
        -11    1    5    5    0    0 -0.39486757481E+02  0.14771564752E+02  0.91292503756E+02  0.10055707028E+03  0.00000000000E+00 0.  1.
         12    1    5    5    0    0  0.17286351475E+02 -0.11820922474E+02  0.24213937824E+03  0.24304326909E+03  0.00000000000E+00 0. -1.
        -11    1    3    3    0    0  0.15588981834E+02 -0.62039695496E+02  0.56517762377E+02  0.85359227011E+02  0.00000000000E+00 0.  1.
         12    1    3    3    0    0  0.87423419377E+02 -0.60855378006E+02  0.15442029123E+02  0.10763218641E+03  0.00000000000E+00 0. -1.
          5    1    4    4  501    0 -0.12923842562E+03  0.11846282431E+03 -0.38838916593E+02  0.17962895880E+03  0.47000000000E+01 0.  1.
         -5    1    4    4    0  501  0.16133623847E+02  0.78057237166E+02  0.11725373227E+02  0.80701923581E+02  0.47000000000E+01 0.  1.
          1    1    1    2  502    0 -0.45010238383E+02 -0.13881422082E+03  0.21108466528E+04  0.21158848979E+04  0.00000000000E+00 0. -1.
          1    1    1    2  503    0  0.77303044948E+02  0.62238590571E+02 -0.18881423571E+04  0.18907487838E+04  0.00000000000E+00 0. -1.
<mgrwt>
<rscale>  0 0.10482969E+03</rscale>
<asrwt>0</asrwt>
<pdfrwt beam="1">  1        2 0.39739256E+00 0.11073908E+03</pdfrwt>
<pdfrwt beam="2">  1        2 0.30901279E+00 0.99235645E+02</pdfrwt>
<totfact> 0.52031657E+00</totfact>
</mgrwt>
</event>
<event>
13    1  0.2101801E-008  0.2753364E+03  0.7546771E-02  0.1222503E+00
          2   -1    0    0  502    0  0.00000000000E+00  0.00000000000E+00  0.24485937293E+04  0.24485937293E+04  0.00000000000E+00 0. -1.
          2   -1    0    0  503    0 -0.00000000000E+00 -0.00000000000E+00 -0.25741299258E+04  0.25741299258E+04  0.00000000000E+00 0. -1.
         24    2    1    2    0    0 -0.79702550994E+02 -0.76877334556E+01  0.29426701621E+03  0.31528843636E+03  0.80013270076E+02 0.  0.
         25    2    1    2    0    0  0.17117665539E+03 -0.20684612714E+03  0.11302489068E+04  0.11684009949E+04  0.12494609166E+03 0.  0.
         24    2    1    2    0    0  0.80894926123E+02  0.10053755344E+02  0.11383752859E+03  0.16011192991E+03  0.77664535758E+02 0.  0.
        -11    1    3    3    0    0 -0.79892566705E+02  0.18505299968E+02  0.17618176596E+03  0.19433291795E+03  0.00000000000E+00 0.  1.
         12    1    3    3    0    0  0.19001571081E+00 -0.26193033424E+02  0.11808525025E+03  0.12095551841E+03  0.00000000000E+00 0. -1.
        -13    1    5    5    0    0  0.94677433162E+02  0.75514756027E+01  0.11050583394E+03  0.14571335035E+03  0.00000000000E+00 0.  1.
         14    1    5    5    0    0 -0.13782507039E+02  0.25022797411E+01  0.33316946495E+01  0.14398579563E+02  0.00000000000E+00 0. -1.
          5    1    4    4  501    0  0.12459408397E+02  0.13627596380E+02  0.33910813753E+02  0.38897063258E+02  0.47000000000E+01 0. -1.
         -5    1    4    4    0  501  0.15871724699E+03 -0.22047372352E+03  0.10963380931E+04  0.11295039317E+04  0.47000000000E+01 0. -1.
          1    1    1    2  502    0 -0.49220438322E+02 -0.41881602293E+02  0.84876263244E+03  0.85121955240E+03  0.00000000000E+00 0. -1.
          1    1    1    2  503    0 -0.12314859219E+03  0.24636170755E+03 -0.25126522805E+04  0.25277027415E+04  0.00000000000E+00 0. -1.
<mgrwt>
<rscale>  0 0.13339534E+03</rscale>
<asrwt>0</asrwt>
<pdfrwt beam="1">  1        2 0.36008732E+00 0.64627550E+02</pdfrwt>
<pdfrwt beam="2">  1        2 0.37854852E+00 0.27533639E+03</pdfrwt>
<totfact> 0.38627206E+00</totfact>
</mgrwt>
</event>
<event>
13    1  0.2101801E-008  0.5117565E+02  0.7546771E-02  0.1444719E+00
          2   -1    0    0  502    0  0.00000000000E+00  0.00000000000E+00  0.17088758595E+04  0.17088758595E+04  0.00000000000E+00 0. -1.
          2   -1    0    0  503    0 -0.00000000000E+00 -0.00000000000E+00 -0.32622874704E+04  0.32622874704E+04  0.00000000000E+00 0. -1.
         24    2    1    2    0    0  0.50370140187E+02 -0.22365908405E+03 -0.41268112633E+03  0.47884537299E+03  0.80166341451E+02 0.  0.
         25    2    1    2    0    0  0.77067623413E+02 -0.24594970290E+03  0.30637301668E+03  0.41943196430E+03  0.12501228897E+03 0.  0.
         24    2    1    2    0    0 -0.84930376044E+02  0.39633059268E+03  0.82895846383E+03  0.92653930149E+03  0.83736700345E+02 0.  0.
        -11    1    5    5    0    0 -0.70378415406E+01  0.18072840872E+03  0.42852476916E+03  0.46512983856E+03  0.00000000000E+00 0.  1.
         12    1    5    5    0    0 -0.77892534503E+02  0.21560218395E+03  0.40043369467E+03  0.46140946294E+03  0.00000000000E+00 0. -1.
        -11    1    3    3    0    0  0.17076335859E+02 -0.20282032376E+03 -0.34968860424E+03  0.40461068314E+03  0.00000000000E+00 0.  1.
         12    1    3    3    0    0  0.33293804328E+02 -0.20838760282E+02 -0.62992522089E+02  0.74234689841E+02  0.00000000000E+00 0. -1.
          5    1    4    4  501    0 -0.28197528862E+02 -0.23290727820E+02  0.63945707004E+02  0.73815324158E+02  0.47000000000E+01 0. -1.
         -5    1    4    4    0  501  0.10526515227E+03 -0.22265897508E+03  0.24242730967E+03  0.34561664014E+03  0.47000000000E+01 0. -1.
          1    1    1    2  502    0  0.12741221582E+01  0.51102331210E+02  0.43341810291E+03  0.43642218502E+03  0.00000000000E+00 0. -1.
          1    1    1    2  503    0 -0.43781509714E+02  0.22175863054E+02 -0.27094800681E+04  0.27099245061E+04  0.00000000000E+00 0. -1.
<mgrwt>
<rscale>  0 0.50115535E+02</rscale>
<asrwt>0</asrwt>
<pdfrwt beam="1">  1        2 0.25130527E+00 0.51175648E+02</pdfrwt>
<pdfrwt beam="2">  1        2 0.47974816E+00 0.49077383E+02</pdfrwt>
<totfact> 0.49447881E+00</totfact>
</mgrwt>
</event>
<event>
13    1  0.2101801E-008  0.7599075E+02  0.7546771E-02  0.1493927E+00
          2   -1    0    0  503    0  0.00000000000E+00  0.00000000000E+00  0.78720917149E+03  0.78720917149E+03  0.00000000000E+00 0. -1.
          2   -1    0    0  502    0 -0.00000000000E+00 -0.00000000000E+00 -0.22968377163E+04  0.22968377163E+04  0.00000000000E+00 0. -1.
         24    2    1    2    0    0 -0.31211149854E+03  0.62632914162E+02 -0.16862586743E+03  0.36938481811E+03  0.81694499358E+02 0.  0.
         25    2    1    2    0    0  0.41247669978E+03 -0.58555670488E+02  0.26981305962E+03  0.51185047326E+03  0.12500410164E+03 0.  0.
         24    2    1    2    0    0 -0.16779291889E+03  0.57614184841E+02 -0.31975105473E+02  0.19666716972E+03  0.78623853580E+02 0.  0.
        -11    1    3    3    0    0 -0.28788337301E+03  0.37440680956E+02 -0.13249195025E+03  0.31911245342E+03  0.00000000000E+00 0.  1.
         12    1    3    3    0    0 -0.24228125527E+02  0.25192233206E+02 -0.36133917180E+02  0.50272364687E+02  0.00000000000E+00 0. -1.
        -13    1    5    5    0    0 -0.16359911074E+03  0.32932834860E+02 -0.17620239608E+02  0.16780856203E+03  0.00000000000E+00 0.  1.
         14    1    5    5    0    0 -0.41938081453E+01  0.24681349981E+02 -0.14354865865E+02  0.28858607687E+02  0.00000000000E+00 0. -1.
          5    1    4    4  501    0  0.33422504688E+03 -0.81223863597E+02  0.25667717157E+03  0.42919571105E+03  0.47000000000E+01 0.  1.
         -5    1    4    4    0  501  0.78251652908E+02  0.22668193110E+02  0.13135888047E+02  0.82654762213E+02  0.47000000000E+01 0.  1.
          1    1    1    2  502    0  0.44204655860E+02 -0.61787370846E+02 -0.17910537972E+04  0.17926643399E+04  0.00000000000E+00 0. -1.
          1    1    1    2  503    0  0.23223061780E+02  0.95942331578E-01  0.21221316568E+03  0.21348008688E+03  0.00000000000E+00 0. -1.
<mgrwt>
<rscale>  0 0.42008962E+02</rscale>
<asrwt>0</asrwt>
<pdfrwt beam="1">  1        2 0.11576605E+00 0.23223260E+02</pdfrwt>
<pdfrwt beam="2">  1        2 0.33777025E+00 0.75990748E+02</pdfrwt>
<totfact> 0.44184281E+01</totfact>
</mgrwt>
</event>
<event>
13    1  0.2101801E-008  0.6669361E+02  0.7546771E-02  0.1420472E+00
          2   -1    0    0  503    0  0.00000000000E+00  0.00000000000E+00  0.16664776182E+04  0.16664776182E+04  0.00000000000E+00 0. -1.
          2   -1    0    0  502    0 -0.00000000000E+00 -0.00000000000E+00 -0.61487757260E+03  0.61487757260E+03  0.00000000000E+00 0. -1.
         24    2    1    2    0    0 -0.30321664681E+02  0.80702155104E+00 -0.13550619498E+03  0.16102660687E+03  0.81532721103E+02 0.  0.
         25    2    1    2    0    0 -0.45382296229E+02 -0.54349543194E+02  0.41421865100E+03  0.43842496795E+03  0.12500374404E+03 0.  0.
         24    2    1    2    0    0  0.26828338054E+02  0.39784691696E+02 -0.13091981847E+03  0.15999663232E+03  0.78462360849E+02 0.  0.
        -11    1    3    3    0    0 -0.49479355814E+01 -0.38198710581E+02 -0.44805638715E+02  0.59086113574E+02  0.00000000000E+00 0.  1.
         12    1    3    3    0    0 -0.25373729100E+02  0.39005732132E+02 -0.90700556262E+02  0.10194049330E+03  0.00000000000E+00 0. -1.
        -13    1    5    5    0    0 -0.92534998789E+01  0.26653596733E+02 -0.53883751760E+01  0.28724137339E+02  0.00000000000E+00 0.  1.
         14    1    5    5    0    0  0.36081837933E+02  0.13131094963E+02 -0.12553144329E+03  0.13127249498E+03  0.00000000000E+00 0. -1.
          5    1    4    4  501    0 -0.38021608163E+02 -0.90088591424E+02  0.35872767027E+03  0.37184570511E+03  0.47000000000E+01 0. -1.
         -5    1    4    4    0  501 -0.73606880659E+01  0.35739048230E+02  0.55490980734E+02  0.66579262838E+02  0.47000000000E+01 0. -1.
          1    1    1    2  502    0 -0.10694356011E+02  0.43944278887E+02 -0.30646966504E+03  0.30978883855E+03  0.00000000000E+00 0. -1.
          1    1    1    2  503    0  0.59569978867E+02 -0.30186448941E+02  0.12102770731E+04  0.12121181451E+04  0.00000000000E+00 0. -1.
<mgrwt>
<rscale>  0 0.54921239E+02</rscale>
<asrwt>0</asrwt>
<pdfrwt beam="1">  1        2 0.24507024E+00 0.66693607E+02</pdfrwt>
<pdfrwt beam="2">  1        2 0.90423173E-01 0.45226860E+02</pdfrwt>
<totfact> 0.11496547E+02</totfact>
</mgrwt>
</event>
<event>
13    1  0.2101801E-008  0.1292968E+03  0.7546771E-02  0.1424320E+00
          2   -1    0    0  503    0  0.00000000000E+00  0.00000000000E+00  0.76800289873E+03  0.76800289873E+03  0.00000000000E+00 0. -1.
          2   -1    0    0  502    0 -0.00000000000E+00 -0.00000000000E+00 -0.21015068145E+04  0.21015068145E+04  0.00000000000E+00 0. -1.
         24    2    1    2    0    0 -0.12171198934E+03 -0.47617883787E+02 -0.13230198884E+03  0.20262517664E+03  0.80447963007E+02 0.  0.
         25    2    1    2    0    0  0.16513878968E+03 -0.16267280259E+02  0.28021257170E+03  0.34882656580E+03  0.12500177361E+03 0.  0.
         24    2    1    2    0    0  0.49796511951E+02 -0.34687528353E+02 -0.89387237315E+02  0.13570957206E+03  0.82122424024E+02 0.  0.
        -13    1    3    3    0    0 -0.66906642558E+02  0.16103072327E+02 -0.50664938509E+02  0.85456092533E+02  0.00000000000E+00 0.  1.
         14    1    3    3    0    0 -0.54805346781E+02 -0.63720956114E+02 -0.81637050327E+02  0.11716908411E+03  0.00000000000E+00 0. -1.
        -13    1    5    5    0    0  0.62251146501E+02 -0.44275326595E+02 -0.45087081451E+02  0.88703746818E+02  0.00000000000E+00 0.  1.
         14    1    5    5    0    0 -0.12454634550E+02  0.95877982419E+01 -0.44300155864E+02  0.47005825240E+02  0.00000000000E+00 0. -1.
          5    1    4    4  501    0  0.16565612498E+03 -0.48947525118E+02  0.21594333256E+03  0.27657083150E+03  0.47000000000E+01 0.  1.
         -5    1    4    4    0  501 -0.51733530270E+00  0.32680244859E+02  0.64269239133E+02  0.72255734296E+02  0.47000000000E+01 0.  1.
          1    1    1    2  502    0 -0.72420551571E+02  0.10753402886E+03 -0.17845096450E+04  0.17892129490E+04  0.00000000000E+00 0. -1.
          1    1    1    2  503    0 -0.20802760719E+02 -0.89613364577E+01  0.39248238365E+03  0.39313544979E+03  0.00000000000E+00 0. -1.
<mgrwt>
<rscale>  0 0.54117287E+02</rscale>
<asrwt>0</asrwt>
<pdfrwt beam="1">  1        2 0.11294160E+00 0.22650837E+02</pdfrwt>
<pdfrwt beam="2">  1        2 0.30904512E+00 0.12929680E+03</pdfrwt>
<totfact> 0.53191818E+01</totfact>
</mgrwt>
</event>
<event>
13    1  0.2101801E-008  0.5046367E+02  0.7546771E-02  0.1517539E+00
          2   -1    0    0  503    0  0.00000000000E+00  0.00000000000E+00  0.20958881278E+04  0.20958881278E+04  0.00000000000E+00 0. -1.
          2   -1    0    0  502    0 -0.00000000000E+00 -0.00000000000E+00 -0.52204124412E+03  0.52204124412E+03  0.00000000000E+00 0. -1.
         24    2    1    2    0    0 -0.25458205035E+02 -0.60004326933E+02 -0.12136982713E+03  0.15963973265E+03  0.80657112815E+02 0.  0.
         25    2    1    2    0    0  0.83352130273E+02  0.15733011289E+03  0.88197736056E+03  0.90841079531E+03  0.12500306583E+03 0.  0.
         24    2    1    2    0    0 -0.43125236086E+02 -0.74338005357E+02  0.14754558514E+03  0.18683372580E+03  0.75836774552E+02 0.  0.
        -13    1    3    3    0    0  0.19316755018E+02 -0.44450137710E+01 -0.67170075183E+02  0.70033664561E+02  0.00000000000E+00 0.  1.
         14    1    3    3    0    0 -0.44774960053E+02 -0.55559313162E+02 -0.54199751952E+02  0.89606068089E+02  0.00000000000E+00 0. -1.
        -13    1    5    5    0    0  0.21519876387E+02 -0.20910661477E+02  0.48721844548E+02  0.57220441970E+02  0.00000000000E+00 0.  1.
         14    1    5    5    0    0 -0.64645112474E+02 -0.53427343881E+02  0.98823740591E+02  0.12961328383E+03  0.00000000000E+00 0. -1.
          5    1    4    4  501    0  0.39165631088E+02 -0.12719493554E+02  0.14919252874E+03  0.15484260656E+03  0.47000000000E+01 0.  1.
         -5    1    4    4    0  501  0.44186499185E+02  0.17004960644E+03  0.73278483181E+03  0.75356818875E+03  0.47000000000E+01 0.  1.
          1    1    1    2  502    0 -0.31758810379E+01 -0.50408726461E+02 -0.34662654247E+03  0.35028714774E+03  0.00000000000E+00 0. -1.
          1    1    1    2  503    0 -0.11592808113E+02  0.27420945862E+02  0.10123203076E+04  0.10127579704E+04  0.00000000000E+00 0. -1.
<mgrwt>
<rscale>  0 0.38760092E+02</rscale>
<asrwt>0</asrwt>
<pdfrwt beam="1">  1        2 0.30821884E+00 0.29770816E+02</pdfrwt>
<pdfrwt beam="2">  1        2 0.76770772E-01 0.50463673E+02</pdfrwt>
<totfact> 0.94304478E+01</totfact>
</mgrwt>
</event>
<event>
13    1  0.2101801E-008  0.2310408E+03  0.7546771E-02  0.1172534E+00
          2   -1    0    0  503    0  0.00000000000E+00  0.00000000000E+00  0.28769294404E+04  0.28769294404E+04  0.00000000000E+00 0. -1.
          2   -1    0    0  502    0 -0.00000000000E+00 -0.00000000000E+00 -0.15949365917E+04  0.15949365917E+04  0.00000000000E+00 0. -1.
         24    2    1    2    0    0 -0.96497493038E+03  0.10549742144E+03  0.57804646635E+03  0.11325931456E+04  0.79518513934E+02 0.  0.
         25    2    1    2    0    0  0.84922153943E+03 -0.45897170549E+03  0.34649584459E+02  0.97399001000E+03  0.12499478554E+03 0.  0.
         24    2    1    2    0    0  0.55033097357E+02  0.44356108500E+03  0.11946280562E+03  0.46865394524E+03  0.74766841153E+02 0.  0.
        -11    1    3    3    0    0 -0.34037723817E+03  0.71318249111E+02  0.22686583751E+03  0.41522411437E+03  0.00000000000E+00 0.  1.
         12    1    3    3    0    0 -0.62459769221E+03  0.34179172329E+02  0.35118062884E+03  0.71736903126E+03  0.00000000000E+00 0. -1.
        -13    1    5    5    0    0  0.72591927083E+02  0.34726382395E+03  0.84330780462E+02  0.36465522324E+03  0.00000000000E+00 0.  1.
         14    1    5    5    0    0 -0.17558829727E+02  0.96297261047E+02  0.35132025162E+02  0.10399872200E+03  0.00000000000E+00 0. -1.
          5    1    4    4  501    0  0.52174242053E+03 -0.21724449709E+03 -0.30255526229E+01  0.56519162137E+03  0.47000000000E+01 0.  1.
         -5    1    4    4    0  501  0.32747911890E+03 -0.24172720840E+03  0.37675137082E+02  0.40879838863E+03  0.47000000000E+01 0.  1.
          1    1    1    2  502    0 -0.59960877926E+01  0.13271496727E+03 -0.65561957009E+03  0.66894412045E+03  0.00000000000E+00 0. -1.
          1    1    1    2  503    0  0.66716381382E+02 -0.22280176822E+03  0.12054535624E+04  0.12276848107E+04  0.00000000000E+00 0. -1.
<mgrwt>
<rscale>  0 0.17519661E+03</rscale>
<asrwt>0</asrwt>
<pdfrwt beam="1">  1        2 0.42307786E+00 0.23104080E+03</pdfrwt>
<pdfrwt beam="2">  1        2 0.23454950E+00 0.13285035E+03</pdfrwt>
<totfact> 0.65366979E+00</totfact>
</mgrwt>
</event>
<event>
13    1  0.2101801E-008  0.1947939E+03  0.7546771E-02  0.1198509E+00
          2   -1    0    0  503    0  0.00000000000E+00  0.00000000000E+00  0.18780882618E+04  0.18780882618E+04  0.00000000000E+00 0. -1.
          2   -1    0    0  502    0 -0.00000000000E+00 -0.00000000000E+00 -0.21949938174E+04  0.21949938174E+04  0.00000000000E+00 0. -1.
         24    2    1    2    0    0  0.32548170919E+02  0.13028239647E+03  0.12154820528E+03  0.20057038254E+03  0.86148858875E+02 0.  0.
         25    2    1    2    0    0  0.25595381610E+03  0.61272644357E+01  0.12474242309E+03  0.31102569522E+03  0.12500564638E+03 0.  0.
         24    2    1    2    0    0  0.18988786587E+02 -0.61531219652E+02  0.56184932845E+03  0.57139507927E+03  0.81676212735E+02 0.  0.
        -11    1    3    3    0    0 -0.19116887090E+02  0.32765592975E+01  0.36423696987E+01  0.19734692039E+02  0.00000000000E+00 0.  1.
         12    1    3    3    0    0  0.51665058009E+02  0.12700583717E+03  0.11790583558E+03  0.18083569050E+03  0.00000000000E+00 0. -1.
        -13    1    5    5    0    0  0.30654521926E+02 -0.77497232938E+02  0.42154692876E+03  0.42970610186E+03  0.00000000000E+00 0.  1.
         14    1    5    5    0    0 -0.11665735339E+02  0.15966013286E+02  0.14030239968E+03  0.14168897740E+03  0.00000000000E+00 0. -1.
          5    1    4    4  501    0  0.69843147670E+02 -0.53840270046E+02  0.51109326936E+02  0.10203476493E+03  0.47000000000E+01 0. -1.
         -5    1    4    4    0  501  0.18611066843E+03  0.59967534482E+02  0.73633096153E+02  0.20899093029E+03  0.47000000000E+01 0. -1.
          1    1    1    2  502    0 -0.19067322986E+03 -0.33362268088E+02 -0.20488656339E+04  0.20579892389E+04  0.00000000000E+00 0. -1.
          1    1    1    2  503    0 -0.11681754374E+03 -0.41516173164E+02  0.92382012153E+03  0.93210168335E+03  0.00000000000E+00 0. -1.
<mgrwt>
<rscale>  0 0.15160991E+03</rscale>
<asrwt>0</asrwt>
<pdfrwt beam="1">  1        2 0.27618945E+00 0.11799938E+03</pdfrwt>
<pdfrwt beam="2">  1        2 0.32279321E+00 0.19479395E+03</pdfrwt>
<totfact> 0.11021605E+01</totfact>
</mgrwt>
</event>
<event>
13    1  0.2101801E-008  0.8706403E+02  0.7546771E-02  0.1376413E+00
          2   -1    0    0  503    0  0.00000000000E+00  0.00000000000E+00  0.42166926331E+03  0.42166926331E+03  0.00000000000E+00 0. -1.
          2   -1    0    0  502    0 -0.00000000000E+00 -0.00000000000E+00 -0.14013781253E+04  0.14013781253E+04  0.00000000000E+00 0. -1.
         24    2    1    2    0    0 -0.99694700746E+00 -0.46072538529E+01 -0.44485325329E+03  0.45199632743E+03  0.79900202492E+02 0.  0.
         25    2    1    2    0    0  0.35010485444E+02  0.78238786355E+02  0.18257161445E+03  0.23728235033E+03  0.12499391023E+03 0.  0.
         24    2    1    2    0    0  0.20731437057E+02 -0.25450572343E+01 -0.15363170459E+03  0.17479364756E+03  0.80708418225E+02 0.  0.
        -13    1    3    3    0    0  0.11653504973E+02  0.62419404413E+01 -0.93925607494E+01  0.16216849141E+02  0.00000000000E+00 0.  1.
         14    1    3    3    0    0 -0.12650451980E+02 -0.10849194294E+02 -0.43546069254E+03  0.43577947829E+03  0.00000000000E+00 0. -1.
        -13    1    5    5    0    0  0.24531053320E+02  0.24463110124E+02 -0.23567137044E+02  0.41900194300E+02  0.00000000000E+00 0.  1.
         14    1    5    5    0    0 -0.37996162629E+01 -0.27008167358E+02 -0.13006456754E+03  0.13289345326E+03  0.00000000000E+00 0. -1.
          5    1    4    4  501    0 -0.88160898941E+01  0.58263597315E+02  0.12448800378E+02  0.60410535868E+02  0.47000000000E+01 0. -1.
         -5    1    4    4    0  501  0.43826575338E+02  0.19975189041E+02  0.17012281407E+03  0.17687181446E+03  0.47000000000E+01 0. -1.
          1    1    1    2  502    0 -0.97318180975E+01 -0.90824839073E+02 -0.75553467018E+03  0.76103646267E+03  0.00000000000E+00 0. -1.
          1    1    1    2  503    0 -0.45013157396E+02  0.19738363805E+02  0.19173915163E+03  0.19793860061E+03  0.00000000000E+00 0. -1.
<mgrwt>
<rscale>  0 0.65416013E+02</rscale>
<asrwt>0</asrwt>
<pdfrwt beam="1">  1        2 0.62010185E-01 0.49150660E+02</pdfrwt>
<pdfrwt beam="2">  1        2 0.20608502E+00 0.87064035E+02</pdfrwt>
<totfact> 0.22464317E+02</totfact>
</mgrwt>
</event>
<event>
13    1  0.2101801E-008  0.1008572E+03  0.7546771E-02  0.1355310E+00
          2   -1    0    0  503    0  0.00000000000E+00  0.00000000000E+00  0.10398722261E+04  0.10398722261E+04  0.00000000000E+00 0. -1.
          2   -1    0    0  502    0 -0.00000000000E+00 -0.00000000000E+00 -0.17000148122E+04  0.17000148122E+04  0.00000000000E+00 0. -1.
         24    2    1    2    0    0 -0.26904991298E+02 -0.24157979726E+02 -0.77039678053E+03  0.77530496393E+03  0.79240779250E+02 0.  0.
         25    2    1    2    0    0 -0.22595319682E+02  0.92533209923E+02  0.29840141314E+03  0.33725632240E+03  0.12500192087E+03 0.  0.
         24    2    1    2    0    0  0.24993364286E+02  0.30397748294E+02 -0.59099982764E+01  0.93237848340E+02  0.84318900157E+02 0.  0.
        -11    1    3    3    0    0  0.15245060786E+02 -0.61791361946E+01 -0.54747349862E+03  0.54772057228E+03  0.00000000000E+00 0.  1.
         12    1    3    3    0    0 -0.42150052084E+02 -0.17978843532E+02 -0.22292328191E+03  0.22758439165E+03  0.00000000000E+00 0. -1.
        -13    1    5    5    0    0 -0.19470195564E+02 -0.41477615423E+01 -0.26622926861E+02  0.33242633406E+02  0.00000000000E+00 0.  1.
         14    1    5    5    0    0  0.44463559851E+02  0.34545509836E+02  0.20712928584E+02  0.59995214934E+02  0.00000000000E+00 0. -1.
          5    1    4    4  501    0  0.25560402095E+02  0.90461827989E+02  0.25647624632E+03  0.27320108236E+03  0.47000000000E+01 0.  1.
         -5    1    4    4    0  501 -0.48155721777E+02  0.20713819345E+01  0.41925166824E+02  0.64055240037E+02  0.47000000000E+01 0.  1.
          1    1    1    2  502    0 -0.24099642559E+02 -0.84771342826E+02 -0.85494784868E+03  0.85947821223E+03  0.00000000000E+00 0. -1.
          1    1    1    2  503    0  0.48606589252E+02 -0.14001635664E+02  0.67271062830E+03  0.67460969141E+03  0.00000000000E+00 0. -1.
<mgrwt>
<rscale>  0 0.71425959E+02</rscale>
<asrwt>0</asrwt>
<pdfrwt beam="1">  1        2 0.15292239E+00 0.50583064E+02</pdfrwt>
<pdfrwt beam="2">  1        2 0.25000217E+00 0.10085723E+03</pdfrwt>
<totfact> 0.57424035E+01</totfact>
</mgrwt>
</event>
<event>
13    1  0.2101801E-008  0.8949690E+02  0.7546771E-02  0.1407550E+00
          2   -1    0    0  503    0  0.00000000000E+00  0.00000000000E+00  0.25204315886E+04  0.25204315886E+04  0.00000000000E+00 0. -1.
          2   -1    0    0  502    0 -0.00000000000E+00 -0.00000000000E+00 -0.11387316001E+04  0.11387316001E+04  0.00000000000E+00 0. -1.
         24    2    1    2    0    0  0.15278977724E+03 -0.14382876334E+03 -0.28422181412E+03  0.37004840438E+03  0.11010155659E+03 0.  0.
         25    2    1    2    0    0 -0.42906908717E+02 -0.26168390839E+01  0.37732753800E+02  0.13746679320E+03  0.12500203143E+03 0.  0.
         24    2    1    2    0    0 -0.57388887629E+02  0.96449698333E+02  0.58859179563E+03  0.60240482535E+03  0.62090603102E+02 0.  0.
        -13    1    3    3    0    0  0.78768276634E+02 -0.11262111880E+03 -0.24439358295E+03  0.28038577209E+03  0.00000000000E+00 0.  1.
         14    1    3    3    0    0  0.74021500611E+02 -0.31207644540E+02 -0.39828231175E+02  0.89662632289E+02  0.00000000000E+00 0. -1.
        -13    1    5    5    0    0 -0.50910216757E+02  0.10549363800E+03  0.53844352189E+03  0.55103737087E+03  0.00000000000E+00 0.  1.
         14    1    5    5    0    0 -0.64786708714E+01 -0.90439396695E+01  0.50148273744E+02  0.51367454488E+02  0.00000000000E+00 0. -1.
          5    1    4    4  501    0 -0.29717776139E+02  0.49511747196E+02  0.55907607999E+02  0.80512793774E+02  0.47000000000E+01 0.  1.
         -5    1    4    4    0  501 -0.13189132578E+02 -0.52128586280E+02 -0.18174854199E+02  0.56953999428E+02  0.47000000000E+01 0.  1.
          1    1    1    2  502    0 -0.17959675497E+02 -0.32642634941E+02 -0.75324465089E+03  0.75416549620E+03  0.00000000000E+00 0. -1.
          1    1    1    2  503    0 -0.34534305402E+02  0.82638539028E+02  0.17928419041E+04  0.17950776695E+04  0.00000000000E+00 0. -1.
<mgrwt>
<rscale>  0 0.57744222E+02</rscale>
<asrwt>0</asrwt>
<pdfrwt beam="1">  1        2 0.37065170E+00 0.89496903E+02</pdfrwt>
<pdfrwt beam="2">  1        2 0.16746053E+00 0.37257101E+02</pdfrwt>
<totfact> 0.21006596E+01</totfact>
</mgrwt>
</event>
<event>
13    1  0.2101801E-008  0.9276247E+02  0.7546771E-02  0.1382842E+00
          2   -1    0    0  503    0  0.00000000000E+00  0.00000000000E+00  0.83616543746E+03  0.83616543746E+03  0.00000000000E+00 0. -1.
          2   -1    0    0  502    0 -0.00000000000E+00 -0.00000000000E+00 -0.28472549925E+04  0.28472549925E+04  0.00000000000E+00 0. -1.
         24    2    1    2    0    0 -0.29558177812E+01  0.49839384153E+02 -0.73513796678E+03  0.74115207087E+03  0.79911581668E+02 0.  0.
         25    2    1    2    0    0 -0.65415585782E+02 -0.54561134901E+01  0.15836889822E+03  0.21216486004E+03  0.12499700745E+03 0.  0.
         24    2    1    2    0    0  0.87121792460E+02  0.17008992181E+01 -0.25096150018E+03  0.28047083190E+03  0.89939497412E+02 0.  0.
        -11    1    5    5    0    0  0.21043588621E+01  0.32194317238E+02 -0.43132200146E+02  0.53863615531E+02  0.00000000000E+00 0.  1.
         12    1    5    5    0    0  0.85017433598E+02 -0.30493418020E+02 -0.20782930004E+03  0.22660721637E+03  0.00000000000E+00 0. -1.
        -13    1    3    3    0    0  0.31336611526E+02 -0.19308699366E+01 -0.29233056457E+03  0.29401168423E+03  0.00000000000E+00 0.  1.
         14    1    3    3    0    0 -0.34292429307E+02  0.51770254090E+02 -0.44280740221E+03  0.44714038664E+03  0.00000000000E+00 0. -1.
          5    1    4    4  501    0 -0.76836278502E+02 -0.51584011355E+02  0.11470901211E+03  0.14746176244E+03  0.47000000000E+01 0.  1.
         -5    1    4    4    0  501  0.11420692720E+02  0.46127897865E+02  0.43659886115E+02  0.64703097601E+02  0.47000000000E+01 0.  1.
          1    1    1    2  502    0 -0.43316550030E+02 -0.82314599940E+02 -0.18145465410E+04  0.18169290482E+04  0.00000000000E+00 0. -1.
          1    1    1    2  503    0  0.24566161134E+02  0.36230430059E+02  0.63118755464E+03  0.63270361897E+03  0.00000000000E+00 0. -1.
<mgrwt>
<rscale>  0 0.63722524E+02</rscale>
<asrwt>0</asrwt>
<pdfrwt beam="1">  1        2 0.12296551E+00 0.43773740E+02</pdfrwt>
<pdfrwt beam="2">  1        2 0.41871397E+00 0.92762466E+02</pdfrwt>
<totfact> 0.20861924E+01</totfact>
</mgrwt>
</event>
<event>
13    1  0.2101801E-008  0.1313104E+03  0.7546771E-02  0.1318153E+00
          2   -1    0    0  503    0  0.00000000000E+00  0.00000000000E+00  0.22338208009E+04  0.22338208009E+04  0.00000000000E+00 0. -1.
          2   -1    0    0  502    0 -0.00000000000E+00 -0.00000000000E+00 -0.33959844791E+04  0.33959844791E+04  0.00000000000E+00 0. -1.
         24    2    1    2    0    0  0.10946029958E+02  0.86050176738E+02 -0.89795789287E+02  0.14701193123E+03  0.77619428387E+02 0.  0.
         25    2    1    2    0    0  0.31903146180E+02  0.12831168241E+03  0.11920609834E+04  0.12058671396E+04  0.12499788642E+03 0.  0.
         24    2    1    2    0    0 -0.34205383887E+02  0.34351719102E+01 -0.18442939534E+02  0.85788699922E+02  0.76405172094E+02 0.  0.
        -11    1    3    3    0    0 -0.30336351034E+02  0.29592433605E+02 -0.53384264785E+02  0.68160736846E+02  0.00000000000E+00 0.  1.
         12    1    3    3    0    0  0.41282380992E+02  0.56457743133E+02 -0.36411524502E+02  0.78851194389E+02  0.00000000000E+00 0. -1.
        -11    1    5    5    0    0  0.17612968620E+02  0.22081315341E+02 -0.10567090525E+02  0.30157330004E+02  0.00000000000E+00 0.  1.
         12    1    5    5    0    0 -0.51818352507E+02 -0.18646143430E+02 -0.78758490084E+01  0.55631369918E+02  0.00000000000E+00 0. -1.
          5    1    4    4  501    0 -0.33425444587E+01  0.65103718391E+02  0.97134980578E+03  0.97354619919E+03  0.47000000000E+01 0.  1.
         -5    1    4    4    0  501  0.35245690639E+02  0.63207964015E+02  0.22071117761E+03  0.23232094039E+03  0.47000000000E+01 0.  1.
          1    1    1    2  502    0  0.44804632501E+02 -0.22293413587E+03 -0.32138002940E+04  0.32218347900E+04  0.00000000000E+00 0. -1.
          1    1    1    2  503    0 -0.53448424752E+02  0.51371048150E+01  0.96781436119E+03  0.96930271932E+03  0.00000000000E+00 0. -1.
<mgrwt>
<rscale>  0 0.83968307E+02</rscale>
<asrwt>0</asrwt>
<pdfrwt beam="1">  1        2 0.32850306E+00 0.53694729E+02</pdfrwt>
<pdfrwt beam="2">  1        2 0.49940947E+00 0.13131040E+03</pdfrwt>
<totfact> 0.19770567E+00</totfact>
</mgrwt>
</event>
<event>
13    1  0.2101801E-008  0.1034946E+03  0.7546771E-02  0.1317749E+00
          2   -1    0    0  503    0  0.00000000000E+00  0.00000000000E+00  0.12268552786E+04  0.12268552786E+04  0.00000000000E+00 0. -1.
         -1   -1    0    0    0  501 -0.00000000000E+00 -0.00000000000E+00 -0.16959029021E+04  0.16959029021E+04  0.00000000000E+00 0.  1.
         24    2    1    2    0    0 -0.47671426957E+02 -0.17083382882E+02 -0.76819062925E+03  0.77396588341E+03  0.79636291258E+02 0.  0.
         25    2    1    2    0    0 -0.17888108171E+02  0.49207703645E+02 -0.20538491490E+01  0.13556298021E+03  0.12502688029E+03 0.  0.
         24    2    1    2    0    0 -0.82014047516E+02  0.18439552785E+02  0.83376653594E+03  0.84179889039E+03  0.79952575372E+02 0.  0.
        -13    1    3    3    0    0 -0.61677346908E+02 -0.60962733646E+01 -0.71876760713E+03  0.72143477372E+03  0.00000000000E+00 0.  1.
         14    1    3    3    0    0  0.14005919951E+02 -0.10987109517E+02 -0.49423022120E+02  0.52531109685E+02  0.00000000000E+00 0. -1.
        -13    1    5    5    0    0  0.68742423814E+01  0.25501288569E+02  0.16169250854E+03  0.16383539985E+03  0.00000000000E+00 0.  1.
         14    1    5    5    0    0 -0.88888289898E+02 -0.70617357840E+01  0.67207402740E+03  0.67796349054E+03  0.00000000000E+00 0. -1.
          5    1    4    4  502    0 -0.22999472978E+02  0.58178383003E+02  0.51285397830E+02  0.81030747477E+02  0.47000000000E+01 0.  1.
         -5    1    4    4    0  502  0.51113648064E+01 -0.89706793579E+01 -0.53339246979E+02  0.54532232731E+02  0.47000000000E+01 0.  1.
          1    1    1    2  503    0  0.10598646550E+03 -0.10483521570E+03  0.30056022138E+03  0.33549962741E+03  0.00000000000E+00 0. -1.
         -2    1    1    2    0  501  0.41587117141E+02  0.54271342154E+02 -0.83312990239E+03  0.83593079926E+03  0.00000000000E+00 0.  1.
<mgrwt>
<rscale>  0 0.84120359E+02</rscale>
<asrwt>0</asrwt>
<pdfrwt beam="1">  1        2 0.18041990E+00 0.10349458E+03</pdfrwt>
<pdfrwt beam="2">  1       -1 0.24939748E+00 0.68372998E+02</pdfrwt>
<totfact> 0.23503240E+00</totfact>
</mgrwt>
</event>
<event>
13    1  0.2101801E-008  0.9853113E+02  0.7546771E-02  0.1332257E+00
          2   -1    0    0  502    0  0.00000000000E+00  0.00000000000E+00  0.88593082656E+03  0.88593082656E+03  0.00000000000E+00 0. -1.
          2   -1    0    0  503    0 -0.00000000000E+00 -0.00000000000E+00 -0.71112035940E+03  0.71112035940E+03  0.00000000000E+00 0. -1.
         24    2    1    2    0    0 -0.14498482897E+01 -0.13223887382E+02  0.23646296039E+03  0.24774290841E+03  0.72696930968E+02 0.  0.
         25    2    1    2    0    0  0.99533726149E+02  0.20029127990E+02  0.13208134102E+03  0.20829171886E+03  0.12502732057E+03 0.  0.
         24    2    1    2    0    0  0.10777196499E+03  0.13543520603E+02 -0.35283017404E+03  0.37796282116E+03  0.81046524140E+02 0.  0.
        -11    1    5    5    0    0  0.81885059343E+02 -0.27235265320E+02 -0.24671456411E+03  0.26137138092E+03  0.00000000000E+00 0.  1.
         12    1    5    5    0    0  0.25886905650E+02  0.40778785923E+02 -0.10611560994E+03  0.11659144024E+03  0.00000000000E+00 0. -1.
        -11    1    3    3    0    0  0.34762836007E+02 -0.14135449962E+01  0.92512975432E+02  0.98838775286E+02  0.00000000000E+00 0.  1.
         12    1    3    3    0    0 -0.36212684297E+02 -0.11810342386E+02  0.14394998496E+03  0.14890413312E+03  0.00000000000E+00 0. -1.
          5    1    4    4  501    0  0.40303544975E+01 -0.19327197468E+02 -0.17263701785E+02  0.26644131036E+02  0.47000000000E+01 0. -1.
         -5    1    4    4    0  501  0.95503371651E+02  0.39356325459E+02  0.14934504281E+03  0.18164758782E+03  0.47000000000E+01 0. -1.
          1    1    1    2  502    0 -0.55335435128E+02  0.30429136141E+02  0.43776016543E+03  0.44229165168E+03  0.00000000000E+00 0. -1.
          1    1    1    2  503    0 -0.15052040772E+03 -0.50777897352E+02 -0.27866382564E+03  0.32076208585E+03  0.00000000000E+00 0. -1.
<mgrwt>
<rscale>  0 0.78881280E+02</rscale>
<asrwt>0</asrwt>
<pdfrwt beam="1">  1        2 0.13028394E+00 0.63150160E+02</pdfrwt>
<pdfrwt beam="2">  1        2 0.10457652E+00 0.98531125E+02</pdfrwt>
<totfact> 0.24382168E+02</totfact>
</mgrwt>
</event>
<event>
13    1  0.2101801E-008  0.1282666E+03  0.7546771E-02  0.1282227E+00
          2   -1    0    0  502    0  0.00000000000E+00  0.00000000000E+00  0.19693966327E+04  0.19693966327E+04  0.00000000000E+00 0. -1.
          2   -1    0    0  503    0 -0.00000000000E+00 -0.00000000000E+00 -0.96540693732E+03  0.96540693732E+03  0.00000000000E+00 0. -1.
         24    2    1    2    0    0  0.89658242004E+01 -0.18195248705E+02  0.88477876808E+03  0.88881659459E+03  0.82158488828E+02 0.  0.
         25    2    1    2    0    0  0.10026707970E+03 -0.75505062996E+02  0.11912870805E+03  0.21347593014E+03  0.12500328738E+03 0.  0.
         24    2    1    2    0    0  0.24757682853E+02 -0.29787707426E+02 -0.62916471691E+02  0.10981522583E+03  0.81244390818E+02 0.  0.
        -11    1    3    3    0    0 -0.50518152480E+01  0.15850202281E+02  0.41159918840E+02  0.44394691896E+02  0.00000000000E+00 0.  1.
         12    1    3    3    0    0  0.14017639448E+02 -0.34045450985E+02  0.84361884924E+03  0.84442190269E+03  0.00000000000E+00 0. -1.
        -11    1    5    5    0    0 -0.18056210274E+02  0.71447531137E+00  0.94331591456E+01  0.20384349288E+02  0.00000000000E+00 0.  1.
         12    1    5    5    0    0  0.42813893126E+02 -0.30502182737E+02 -0.72349630837E+02  0.89430876539E+02  0.00000000000E+00 0. -1.
          5    1    4    4  501    0  0.22695239068E+02  0.27741663105E+01 -0.23531849739E+02  0.33145253464E+02  0.47000000000E+01 0. -1.
         -5    1    4    4    0  501  0.77571840629E+02 -0.78279229306E+02  0.14266055779E+03  0.18033067667E+03  0.47000000000E+01 0. -1.
          1    1    1    2  502    0  0.71141680939E+02  0.28250834747E+02  0.87573746620E+03  0.87907642337E+03  0.00000000000E+00 0. -1.
          1    1    1    2  503    0 -0.20513226769E+03  0.95237184380E+02 -0.81273877529E+03  0.84361939606E+03  0.00000000000E+00 0. -1.
<mgrwt>
<rscale>  0 0.99087127E+02</rscale>
<asrwt>0</asrwt>
<pdfrwt beam="1">  1        2 0.28961715E+00 0.76545728E+02</pdfrwt>
<pdfrwt beam="2">  1        2 0.14197161E+00 0.12826658E+03</pdfrwt>
<totfact> 0.46153864E+01</totfact>
</mgrwt>
</event>
<event>
13    1  0.2101801E-008  0.1073437E+03  0.7546771E-02  0.1426375E+00
          2   -1    0    0  503    0  0.00000000000E+00  0.00000000000E+00  0.30986837626E+03  0.30986837626E+03  0.00000000000E+00 0. -1.
          2   -1    0    0  502    0 -0.00000000000E+00 -0.00000000000E+00 -0.25583844928E+04  0.25583844928E+04  0.00000000000E+00 0. -1.
         24    2    1    2    0    0  0.17084586691E+03  0.14590267999E+03 -0.13061246413E+04  0.13276972332E+04  0.79639577491E+02 0.  0.
         25    2    1    2    0    0 -0.31713379660E+03 -0.34003906958E+02  0.46970012852E+02  0.34578136125E+03  0.12501382740E+03 0.  0.
         24    2    1    2    0    0  0.21464325807E+02 -0.82267632984E+02 -0.37987747418E+03  0.39748300075E+03  0.80356454488E+02 0.  0.
        -11    1    3    3    0    0  0.58602950549E+02  0.10238493156E+03 -0.63980335627E+03  0.65058843728E+03  0.00000000000E+00 0.  1.
         12    1    3    3    0    0  0.11224291636E+03  0.43517748425E+02 -0.66632128502E+03  0.67710879596E+03  0.00000000000E+00 0. -1.
        -11    1    5    5    0    0 -0.32412950191E+01  0.12005291419E+02 -0.10708814520E+03  0.10780771706E+03  0.00000000000E+00 0.  1.
         12    1    5    5    0    0  0.24705620826E+02 -0.94272924404E+02 -0.27278932898E+03  0.28967528369E+03  0.00000000000E+00 0. -1.
          5    1    4    4  501    0 -0.26308308626E+03 -0.16592343186E+02 -0.11816074050E+02  0.26391234479E+03  0.47000000000E+01 0. -1.
         -5    1    4    4    0  501 -0.54050710346E+02 -0.17411563771E+02  0.58786086903E+02  0.81869016454E+02  0.47000000000E+01 0. -1.
          1    1    1    2  502    0  0.99630727367E+02 -0.38942778476E+02 -0.69730120227E+03  0.70545856612E+03  0.00000000000E+00 0. -1.
          1    1    1    2  503    0  0.25192876525E+02  0.93116384286E+01  0.87817188340E+02  0.91832707713E+02  0.00000000000E+00 0. -1.
<mgrwt>
<rscale>  0 0.53694588E+02</rscale>
<asrwt>0</asrwt>
<pdfrwt beam="1">  1        2 0.45568880E-01 0.26858660E+02</pdfrwt>
<pdfrwt beam="2">  1        2 0.37623301E+00 0.10734373E+03</pdfrwt>
<totfact> 0.81488200E+01</totfact>
</mgrwt>
</event>
<event>
13    1  0.2101801E-008  0.2311663E+03  0.7546771E-02  0.1186410E+00
         -3   -1    0    0    0  501 -0.00000000000E+00  0.00000000000E+00  0.16515610243E+04  0.16515610243E+04  0.00000000000E+00 0.  1.
          2   -1    0    0  503    0  0.00000000000E+00 -0.00000000000E+00 -0.81054090609E+03  0.81054090609E+03  0.00000000000E+00 0. -1.
         24    2    1    2    0    0 -0.20733379987E+02  0.14142279191E+03  0.29331609190E+03  0.33489506087E+03  0.75432704524E+02 0.  0.
         25    2    1    2    0    0 -0.12167362868E+03  0.54971054542E+02 -0.27628820366E+03  0.33134091821E+03  0.12500137536E+03 0.  0.
         24    2    1    2    0    0  0.69315693844E+02 -0.32720251011E+03  0.11750543279E+03  0.36366295713E+03  0.81099146846E+02 0.  0.
        -13    1    3    3    0    0 -0.31916767096E+02  0.34590850656E+02  0.48663803923E+02  0.67700611395E+02  0.00000000000E+00 0.  1.
         14    1    3    3    0    0  0.11183387109E+02  0.10683194126E+03  0.24465228798E+03  0.26719444948E+03  0.00000000000E+00 0. -1.
        -13    1    5    5    0    0  0.14677988473E+01 -0.11359553705E+03  0.73362786381E+02  0.13523386742E+03  0.00000000000E+00 0.  1.
         14    1    5    5    0    0  0.67847894997E+02 -0.21360697306E+03  0.44142646405E+02  0.22842908971E+03  0.00000000000E+00 0. -1.
          5    1    4    4  502    0  0.32511207348E+01 -0.44034986682E+01  0.10596062979E+02  0.12819014674E+02  0.47000000000E+01 0.  1.
         -5    1    4    4    0  502 -0.12492474941E+03  0.59374553210E+02 -0.28688426664E+03  0.31852190353E+03  0.47000000000E+01 0.  1.
          1    1    1    2  503    0  0.57680244475E+01 -0.11344114945E+03 -0.33844356975E+03  0.35699609858E+03  0.00000000000E+00 0. -1.
         -4    1    1    2    0  501  0.67323290371E+02  0.24424981310E+03  0.10449303669E+04  0.10752068956E+04  0.00000000000E+00 0.  1.
<mgrwt>
<rscale>  0 0.16204212E+03</rscale>
<asrwt>0</asrwt>
<pdfrwt beam="2">  1        2 0.11919719E+00 0.11358770E+03</pdfrwt>
<pdfrwt beam="1">  1       -3 0.24287662E+00 0.23116631E+03</pdfrwt>
<totfact> 0.21099824E+00</totfact>
</mgrwt>
</event>
<event>
13    1  0.2101801E-008  0.7994042E+02  0.7546771E-02  0.1385150E+00
          2   -1    0    0  503    0  0.00000000000E+00  0.00000000000E+00  0.27218292418E+04  0.27218292418E+04  0.00000000000E+00 0. -1.
          2   -1    0    0  502    0 -0.00000000000E+00 -0.00000000000E+00 -0.13208808259E+04  0.13208808259E+04  0.00000000000E+00 0. -1.
         24    2    1    2    0    0  0.38968884506E+02 -0.70536189366E+02 -0.38542100682E+03  0.40589811955E+03  0.98539347395E+02 0.  0.
         25    2    1    2    0    0  0.67062087789E+02  0.31354267612E+02  0.43124334147E+03  0.45505551466E+03  0.12499715255E+03 0.  0.
         24    2    1    2    0    0 -0.42808619091E+02  0.40811171442E+02 -0.56046397882E+03  0.57210064375E+03  0.98392811911E+02 0.  0.
        -11    1    5    5    0    0 -0.40511903057E+02  0.72227534671E+02 -0.42851513330E+03  0.43644386870E+03  0.00000000000E+00 0.  1.
         12    1    5    5    0    0 -0.22967160345E+01 -0.31416363228E+02 -0.13194884552E+03  0.13565677505E+03  0.00000000000E+00 0. -1.
        -13    1    3    3    0    0  0.44803690642E+01  0.13912272300E+02 -0.62281373289E+01  0.15887565014E+02  0.00000000000E+00 0.  1.
         14    1    3    3    0    0  0.34488515442E+02 -0.84448461666E+02 -0.37919286950E+03  0.39001055454E+03  0.00000000000E+00 0. -1.
          5    1    4    4  501    0 -0.24223341111E+01  0.66837516127E+02  0.20600204238E+03  0.21663806851E+03  0.47000000000E+01 0.  1.
         -5    1    4    4    0  501  0.69484421900E+02 -0.35483248515E+02  0.22524129909E+03  0.23841744615E+03  0.47000000000E+01 0.  1.
          1    1    1    2  502    0  0.56433498492E+00 -0.49850278348E+02 -0.34453172502E+03  0.34811991938E+03  0.00000000000E+00 0. -1.
          1    1    1    2  503    0 -0.63786688189E+02  0.48221028659E+02  0.22601217852E+04  0.22615358704E+04  0.00000000000E+00 0. -1.
<mgrwt>
<rscale>  0 0.63129291E+02</rscale>
<asrwt>0</asrwt>
<pdfrwt beam="1">  1        2 0.40026901E+00 0.79940417E+02</pdfrwt>
<pdfrwt beam="2">  1        2 0.19424718E+00 0.49853473E+02</pdfrwt>
<totfact> 0.13438406E+01</totfact>
</mgrwt>
</event>
<event>
13    1  0.2101801E-008  0.1162232E+03  0.7546771E-02  0.1317569E+00
          2   -1    0    0  502    0  0.00000000000E+00  0.00000000000E+00  0.80568070790E+03  0.80568070790E+03  0.00000000000E+00 0. -1.
          2   -1    0    0  503    0 -0.00000000000E+00 -0.00000000000E+00 -0.19633951605E+04  0.19633951605E+04  0.00000000000E+00 0. -1.
         24    2    1    2    0    0 -0.71626744178E+01 -0.14575874385E+02 -0.83683801731E+03  0.84095248043E+03  0.81482802579E+02 0.  0.
         25    2    1    2    0    0 -0.97024039366E+02  0.13341344116E+03  0.74645354274E+02  0.22002057419E+03  0.12499725458E+03 0.  0.
         24    2    1    2    0    0 -0.14418739686E+02 -0.22131869376E+02 -0.63869983709E+01  0.86267687864E+02  0.81875518472E+02 0.  0.
        -11    1    3    3    0    0 -0.96403805599E+01  0.22824265906E+02 -0.95311786447E+02  0.98479544512E+02  0.00000000000E+00 0.  1.
         12    1    3    3    0    0  0.24777061420E+01 -0.37400140291E+02 -0.74152623086E+03  0.74247293592E+03  0.00000000000E+00 0. -1.
        -11    1    5    5    0    0 -0.39424951496E+02 -0.17965316485E+01 -0.27172658586E+02  0.47915631072E+02  0.00000000000E+00 0.  1.
         12    1    5    5    0    0  0.25006211810E+02 -0.20335337727E+02  0.20785660215E+02  0.38352056792E+02  0.00000000000E+00 0. -1.
          5    1    4    4  501    0 -0.23536405634E+02  0.12501132933E+03  0.22174600779E+02  0.12921144597E+03  0.47000000000E+01 0. -1.
         -5    1    4    4    0  501 -0.73487633732E+02  0.84021118363E+01  0.52470753495E+02  0.90809128215E+02  0.47000000000E+01 0. -1.
          1    1    1    2  502    0  0.46559719877E+02  0.39384765736E+02  0.60892270565E+03  0.61196881353E+03  0.00000000000E+00 0. -1.
          1    1    1    2  503    0  0.72045733593E+02 -0.13609046314E+03 -0.99805749685E+03  0.10098663124E+04  0.00000000000E+00 0. -1.
<mgrwt>
<rscale>  0 0.84188340E+02</rscale>
<asrwt>0</asrwt>
<pdfrwt beam="1">  1        2 0.11848246E+00 0.60983336E+02</pdfrwt>
<pdfrwt beam="2">  1        2 0.28873458E+00 0.11622317E+03</pdfrwt>
<totfact> 0.57475460E+01</totfact>
</mgrwt>
</event>
<event>
13    1  0.2101801E-008  0.1465570E+03  0.7546771E-02  0.1245164E+00
          2   -1    0    0  503    0  0.00000000000E+00  0.00000000000E+00  0.36086104697E+04  0.36086104697E+04  0.00000000000E+00 0. -1.
          2   -1    0    0  502    0 -0.00000000000E+00 -0.00000000000E+00 -0.25515097055E+04  0.25515097055E+04  0.00000000000E+00 0. -1.
         24    2    1    2    0    0  0.49641972644E+02 -0.40201011835E+02  0.71481920415E+02  0.12463436470E+03  0.79646802297E+02 0.  0.
         25    2    1    2    0    0 -0.26925041570E+03 -0.61886309333E+02  0.92577506070E+03  0.97417329913E+03  0.12501380757E+03 0.  0.
         24    2    1    2    0    0  0.13910294453E+03  0.75099439052E+02  0.95797104804E+03  0.97424686120E+03  0.80367050125E+02 0.  0.
        -11    1    3    3    0    0 -0.16508593225E+02 -0.22797626509E+01 -0.42166776814E+01  0.17190443237E+02  0.00000000000E+00 0.  1.
         12    1    3    3    0    0  0.66150565870E+02 -0.37921249184E+02  0.75698598097E+02  0.10744392146E+03  0.00000000000E+00 0. -1.
        -13    1    5    5    0    0  0.14761509629E+03  0.58807200473E+02  0.86595201008E+03  0.88040978371E+03  0.00000000000E+00 0.  1.
         14    1    5    5    0    0 -0.85121517547E+01  0.16292238580E+02  0.92019037959E+02  0.93837077492E+02  0.00000000000E+00 0. -1.
          5    1    4    4  501    0 -0.20591365935E+03 -0.84240323894E+02  0.81227403507E+03  0.84220428954E+03  0.47000000000E+01 0.  1.
         -5    1    4    4    0  501 -0.63336756352E+02  0.22354014561E+02  0.11350102564E+03  0.13196900959E+03  0.47000000000E+01 0.  1.
          1    1    1    2  502    0  0.12302592745E+03 -0.79708911056E+02 -0.24883681614E+04  0.24926822894E+04  0.00000000000E+00 0. -1.
          1    1    1    2  503    0 -0.42520428929E+02  0.10669679317E+03  0.15902408964E+04  0.15943833608E+04  0.00000000000E+00 0. -1.
<mgrwt>
<rscale>  0 0.11875581E+03</rscale>
<asrwt>0</asrwt>
<pdfrwt beam="1">  1        2 0.53067801E+00 0.96228403E+02</pdfrwt>
<pdfrwt beam="2">  1        2 0.37522201E+00 0.14655697E+03</pdfrwt>
<totfact> 0.96348248E-01</totfact>
</mgrwt>
</event>
<event>
13    1  0.2101801E-008  0.1319513E+03  0.7546771E-02  0.1242966E+00
          2   -1    0    0  503    0  0.00000000000E+00  0.00000000000E+00  0.20819990931E+04  0.20819990931E+04  0.00000000000E+00 0. -1.
          2   -1    0    0  502    0 -0.00000000000E+00 -0.00000000000E+00 -0.14694102752E+04  0.14694102752E+04  0.00000000000E+00 0. -1.
         24    2    1    2    0    0  0.32558811924E+02  0.16595175510E+03 -0.61812560208E+03  0.64593001875E+03  0.80909010122E+02 0.  0.
         25    2    1    2    0    0 -0.11046100889E+03 -0.35877737460E+03  0.32060875784E+03  0.50925821314E+03  0.12502444975E+03 0.  0.
         24    2    1    2    0    0  0.11782711581E+03 -0.85800107512E+01  0.22986558662E+03  0.27042726451E+03  0.79598188880E+02 0.  0.
        -11    1    3    3    0    0  0.19963519683E+02  0.90263874224E+01 -0.30319832395E+02  0.37407352546E+02  0.00000000000E+00 0.  1.
         12    1    3    3    0    0  0.12595292242E+02  0.15692536768E+03 -0.58780576968E+03  0.60852266620E+03  0.00000000000E+00 0. -1.
        -13    1    5    5    0    0  0.97984214006E+02 -0.38560644292E+02  0.18571709046E+03  0.21349160914E+03  0.00000000000E+00 0.  1.
         14    1    5    5    0    0  0.19842901802E+02  0.29980633540E+02  0.44148496154E+02  0.56935655367E+02  0.00000000000E+00 0. -1.
          5    1    4    4  501    0 -0.36908757907E+01 -0.18557510064E+03  0.10735635573E+03  0.21447428205E+03  0.47000000000E+01 0.  1.
         -5    1    4    4    0  501 -0.10677013310E+03 -0.17320227396E+03  0.21325240211E+03  0.29478393110E+03  0.47000000000E+01 0.  1.
          1    1    1    2  502    0  0.76080991409E+02  0.78439746728E+02 -0.71350983566E+03  0.72182920189E+03  0.00000000000E+00 0. -1.
          1    1    1    2  503    0 -0.11600591025E+03  0.12296588353E+03  0.13937499112E+04  0.14039646700E+04  0.00000000000E+00 0. -1.
<mgrwt>
<rscale>  0 0.12007928E+03</rscale>
<asrwt>0</asrwt>
<pdfrwt beam="1">  1        2 0.30617634E+00 0.13195134E+03</pdfrwt>
<pdfrwt beam="2">  1        2 0.21608975E+00 0.10927539E+03</pdfrwt>
<totfact> 0.20839285E+01</totfact>
</mgrwt>
</event>
<event>
13    1  0.2101801E-008  0.8937267E+02  0.7546771E-02  0.1401475E+00
          2   -1    0    0  502    0  0.00000000000E+00  0.00000000000E+00  0.20127596465E+04  0.20127596465E+04  0.00000000000E+00 0. -1.
          2   -1    0    0  503    0 -0.00000000000E+00 -0.00000000000E+00 -0.18851210559E+04  0.18851210559E+04  0.00000000000E+00 0. -1.
         24    2    1    2    0    0 -0.73750310183E+03  0.60424949092E+03  0.62225033522E+03  0.11432917761E+04  0.10436634138E+03 0.  0.
         25    2    1    2    0    0  0.18479929823E+03  0.10675673303E+03 -0.15547291506E+03  0.29213747016E+03  0.12499877391E+03 0.  0.
         24    2    1    2    0    0  0.61242227684E+03 -0.70314068080E+03 -0.15148410914E+03  0.94814102402E+03  0.80969771848E+02 0.  0.
        -13    1    3    3    0    0 -0.85971289333E+02  0.48349359732E+02  0.98434265600E+02  0.13934858385E+03  0.00000000000E+00 0.  1.
         14    1    3    3    0    0 -0.65153181250E+03  0.55590013118E+03  0.52381606962E+03  0.10039431923E+04  0.00000000000E+00 0. -1.
        -13    1    5    5    0    0  0.15466564002E+03 -0.22326345574E+03 -0.65588463806E+02  0.27940987358E+03  0.00000000000E+00 0.  1.
         14    1    5    5    0    0  0.45775663682E+03 -0.47987722506E+03 -0.85895645339E+02  0.66873115045E+03  0.00000000000E+00 0. -1.
          5    1    4    4  501    0  0.79766079929E+02  0.10837207051E+03 -0.12224924972E+03  0.18186286655E+03  0.47000000000E+01 0.  1.
         -5    1    4    4    0  501  0.10503321830E+03 -0.16153374766E+01 -0.33223665339E+02  0.11027460360E+03  0.47000000000E+01 0.  1.
          1    1    1    2  502    0 -0.87207025404E+02  0.19989810609E+02  0.65985741002E+03  0.66589523152E+03  0.00000000000E+00 0. -1.
          1    1    1    2  503    0  0.27488552165E+02 -0.27855353762E+02 -0.84751213047E+03  0.84841520055E+03  0.00000000000E+00 0. -1.
<mgrwt>
<rscale>  0 0.59140438E+02</rscale>
<asrwt>0</asrwt>
<pdfrwt beam="1">  1        2 0.29599407E+00 0.89372669E+02</pdfrwt>
<pdfrwt beam="2">  1        2 0.27722368E+00 0.39134911E+02</pdfrwt>
<totfact> 0.16323849E+01</totfact>
</mgrwt>
</event>
<event>
13    1  0.2101801E-008  0.5527163E+02  0.7546771E-02  0.1528865E+00
          2   -1    0    0  503    0  0.00000000000E+00  0.00000000000E+00  0.63168795930E+03  0.63168795930E+03  0.00000000000E+00 0. -1.
          2   -1    0    0  502    0 -0.00000000000E+00 -0.00000000000E+00 -0.49362399572E+03  0.49362399572E+03  0.00000000000E+00 0. -1.
         24    2    1    2    0    0  0.18998893605E+03  0.73826919342E+02 -0.16116321334E+03  0.27266616292E+03  0.82625935528E+02 0.  0.
         25    2    1    2    0    0 -0.18244522542E+03 -0.19410022920E+03  0.34206598431E+03  0.45121271736E+03  0.12499047735E+03 0.  0.
         24    2    1    2    0    0  0.41171428725E+02  0.71633656783E+02 -0.32634354453E+02  0.12093604622E+03  0.82061311578E+02 0.  0.
        -13    1    5    5    0    0 -0.41326753724E+01 -0.10656156154E+02 -0.24025812031E+02  0.26605869906E+02  0.00000000000E+00 0.  1.
         14    1    5    5    0    0  0.45304104097E+02  0.82289812936E+02 -0.86085424223E+01  0.94330176316E+02  0.00000000000E+00 0. -1.
        -13    1    3    3    0    0  0.82640851149E+02  0.21103671474E+01 -0.28215554477E+02  0.87350337392E+02  0.00000000000E+00 0.  1.
         14    1    3    3    0    0  0.10734808491E+03  0.71716552194E+02 -0.13294765887E+03  0.18531582553E+03  0.00000000000E+00 0. -1.
          5    1    4    4  501    0 -0.14666965770E+02  0.37825953112E+01  0.83161272889E+02  0.84659997760E+02  0.47000000000E+01 0. -1.
         -5    1    4    4    0  501 -0.16777825965E+03 -0.19788282451E+03  0.25890471142E+03  0.36655271960E+03  0.47000000000E+01 0. -1.
          1    1    1    2  502    0 -0.23539471074E+02  0.49896152526E+02 -0.13884799606E+03  0.14940715761E+03  0.00000000000E+00 0. -1.
          1    1    1    2  503    0 -0.25175668289E+02 -0.12564994486E+01  0.12864354313E+03  0.13108987091E+03  0.00000000000E+00 0. -1.
<mgrwt>
<rscale>  0 0.37326028E+02</rscale>
<asrwt>0</asrwt>
<pdfrwt beam="1">  1        2 0.92895288E-01 0.25207004E+02</pdfrwt>
<pdfrwt beam="2">  1        2 0.72591764E-01 0.55271635E+02</pdfrwt>
<totfact> 0.55510272E+02</totfact>
</mgrwt>
</event>
<event>
13    1  0.2101801E-008  0.1068094E+03  0.7546771E-02  0.1331713E+00
          2   -1    0    0  503    0  0.00000000000E+00  0.00000000000E+00  0.24386896804E+04  0.24386896804E+04  0.00000000000E+00 0. -1.
          2   -1    0    0  502    0 -0.00000000000E+00 -0.00000000000E+00 -0.19480999060E+04  0.19480999060E+04  0.00000000000E+00 0. -1.
         24    2    1    2    0    0  0.12068758747E+03 -0.44383985901E+03 -0.83945343365E+03  0.96321603730E+03  0.10744185879E+03 0.  0.
         25    2    1    2    0    0  0.24855893311E+03  0.27495262801E+03  0.18375518858E+03  0.43217224142E+03  0.12500554405E+03 0.  0.
         24    2    1    2    0    0 -0.36004067885E+03  0.30687438270E+03 -0.10847043728E+03  0.49175687765E+03  0.79106344649E+02 0.  0.
        -11    1    5    5    0    0 -0.19389684395E+03  0.13180706357E+03 -0.22435710607E+02  0.23552589923E+03  0.00000000000E+00 0.  1.
         12    1    5    5    0    0 -0.16614383490E+03  0.17506731914E+03 -0.86034726673E+02  0.25623097842E+03  0.00000000000E+00 0. -1.
        -13    1    3    3    0    0  0.37676781748E+01 -0.13922969841E+03 -0.33060034578E+03  0.35874181935E+03  0.00000000000E+00 0.  1.
         14    1    3    3    0    0  0.11691990930E+03 -0.30461016060E+03 -0.50885308787E+03  0.60447421795E+03  0.00000000000E+00 0. -1.
          5    1    4    4  501    0  0.14178259158E+03  0.17606637206E+03  0.43999363262E+02  0.23034692230E+03  0.47000000000E+01 0.  1.
         -5    1    4    4    0  501  0.10677634153E+03  0.98886255949E+02  0.13975582532E+03  0.20182531912E+03  0.47000000000E+01 0.  1.
          1    1    1    2  502    0 -0.45035000817E+02 -0.37390953730E+02 -0.61954371754E+03  0.62230270180E+03  0.00000000000E+00 0. -1.
          1    1    1    2  503    0  0.35829159084E+02 -0.10059619797E+03  0.18743021744E+04  0.18773417282E+04  0.00000000000E+00 0. -1.
<mgrwt>
<rscale>  0 0.79069503E+02</rscale>
<asrwt>0</asrwt>
<pdfrwt beam="1">  1        2 0.35863084E+00 0.10680940E+03</pdfrwt>
<pdfrwt beam="2">  1        2 0.28648528E+00 0.58534048E+02</pdfrwt>
<totfact> 0.88859871E+00</totfact>
</mgrwt>
</event>
<event>
13    1  0.2101801E-008  0.3162051E+02  0.7546771E-02  0.1638214E+00
         -1   -1    0    0    0  501 -0.00000000000E+00  0.00000000000E+00  0.37703672582E+03  0.37703672582E+03  0.00000000000E+00 0.  1.
          2   -1    0    0  503    0  0.00000000000E+00 -0.00000000000E+00 -0.10736422894E+04  0.10736422894E+04  0.00000000000E+00 0. -1.
         24    2    1    2    0    0 -0.10535581662E+02 -0.11816043713E+03  0.20916186419E+03  0.25398595754E+03  0.81775875505E+02 0.  0.
         25    2    1    2    0    0 -0.17893448690E+02  0.14430222462E+03 -0.33194873257E+03  0.38335211840E+03  0.12500231233E+03 0.  0.
         24    2    1    2    0    0  0.16311885612E+02  0.35340267623E+01  0.27390627597E+02  0.64985699776E+02  0.56518384070E+02 0.  0.
        -11    1    5    5    0    0  0.27265279815E+02 -0.34347965135E+01  0.38905667192E+02  0.47632386568E+02  0.00000000000E+00 0.  1.
         12    1    5    5    0    0 -0.10953394203E+02  0.69688232758E+01 -0.11515039595E+02  0.17353313208E+02  0.00000000000E+00 0. -1.
        -13    1    3    3    0    0  0.16367536617E+02 -0.11449155578E+03  0.15494230172E+03  0.19334769060E+03  0.00000000000E+00 0.  1.
         14    1    3    3    0    0 -0.26903118279E+02 -0.36688813578E+01  0.54219562468E+02  0.60638266942E+02  0.00000000000E+00 0. -1.
          5    1    4    4  502    0  0.19027469054E+02  0.15223049502E+03 -0.27296122614E+03  0.31315505611E+03  0.47000000000E+01 0.  1.
         -5    1    4    4    0  502 -0.36920917745E+02 -0.79282703965E+01 -0.58987506432E+02  0.70197062287E+02  0.47000000000E+01 0.  1.
          1    1    1    2  503    0 -0.16241602807E+02 -0.15544349523E+02 -0.67117402977E+03  0.67155044093E+03  0.00000000000E+00 0. -1.
         -2    1    1    2    0  501  0.28358747547E+02 -0.14131464724E+02  0.69964706992E+02  0.76804798562E+02  0.00000000000E+00 0.  1.
<mgrwt>
<rscale>  0 0.26662250E+02</rscale>
<asrwt>0</asrwt>
<pdfrwt beam="2">  1        2 0.15788857E+00 0.22481469E+02</pdfrwt>
<pdfrwt beam="1">  1       -1 0.55446577E-01 0.31620513E+02</pdfrwt>
<totfact> 0.11522424E+02</totfact>
</mgrwt>
</event>
<event>
13    1  0.2101801E-008  0.1263126E+03  0.7546771E-02  0.1243577E+00
          2   -1    0    0  503    0  0.00000000000E+00  0.00000000000E+00  0.32125639137E+04  0.32125639137E+04  0.00000000000E+00 0. -1.
         -1   -1    0    0    0  501 -0.00000000000E+00 -0.00000000000E+00 -0.13958280714E+04  0.13958280714E+04  0.00000000000E+00 0.  1.
         24    2    1    2    0    0 -0.22490704402E+02 -0.41726837179E+02 -0.42050247290E+03  0.43641152117E+03  0.10670391450E+03 0.  0.
         25    2    1    2    0    0 -0.83800437435E+02 -0.21995934160E+02  0.14055045550E+03  0.20709016955E+03  0.12500229338E+03 0.  0.
         24    2    1    2    0    0 -0.96636277298E+02  0.13189330237E+03  0.19334455535E+04  0.19420528011E+04  0.81381572973E+02 0.  0.
        -11    1    5    5    0    0 -0.19313703300E+02  0.26710645955E+02  0.13858320763E+03  0.14244923018E+03  0.00000000000E+00 0.  1.
         12    1    5    5    0    0 -0.77322573998E+02  0.10518265641E+03  0.17948623459E+04  0.17996035709E+04  0.00000000000E+00 0. -1.
        -11    1    3    3    0    0  0.20950168830E+02  0.27306192459E+02 -0.14892632112E+03  0.15285151894E+03  0.00000000000E+00 0.  1.
         12    1    3    3    0    0 -0.43440873232E+02 -0.69033029638E+02 -0.27157615178E+03  0.28356000223E+03  0.00000000000E+00 0. -1.
          5    1    4    4  502    0 -0.57274296703E+02 -0.62886361018E+02  0.13241640437E+03  0.15745232171E+03  0.47000000000E+01 0. -1.
         -5    1    4    4    0  502 -0.26526140732E+02  0.40890426857E+02  0.81340511281E+01  0.49637847843E+02  0.47000000000E+01 0. -1.
          1    1    1    2  503    0  0.40896001252E+02 -0.10582461292E+03  0.10826116009E+04  0.10885399441E+04  0.00000000000E+00 0. -1.
         -2    1    1    2    0  501  0.16203141788E+03  0.37654081891E+02 -0.91936929473E+03  0.93429754916E+03  0.00000000000E+00 0.  1.
<mgrwt>
<rscale>  0 0.11970966E+03</rscale>
<asrwt>0</asrwt>
<pdfrwt beam="1">  1        2 0.47243587E+00 0.11345189E+03</pdfrwt>
<pdfrwt beam="2">  1       -1 0.20526883E+00 0.12631259E+03</pdfrwt>
<totfact> 0.41296025E-01</totfact>
</mgrwt>
</event>
<event>
13    1  0.2101801E-008  0.1355075E+03  0.7546771E-02  0.1222164E+00
          2   -1    0    0  503    0  0.00000000000E+00  0.00000000000E+00  0.13898519289E+04  0.13898519289E+04  0.00000000000E+00 0. -1.
          2   -1    0    0  502    0 -0.00000000000E+00 -0.00000000000E+00 -0.93361234581E+03  0.93361234581E+03  0.00000000000E+00 0. -1.
         24    2    1    2    0    0  0.44369595553E+02 -0.49975850327E+02 -0.18767752960E+03  0.21136304915E+03  0.70606209382E+02 0.  0.
         25    2    1    2    0    0  0.70623185531E+02  0.32532214060E+03  0.67559820431E+03  0.76346572906E+03  0.12499942515E+03 0.  0.
         24    2    1    2    0    0 -0.20702509661E+02  0.13883339734E+02 -0.27023851922E+03  0.28320819432E+03  0.80973347666E+02 0.  0.
        -11    1    5    5    0    0 -0.18156131119E+02 -0.25606714659E+02 -0.20118922618E+03  0.20362331316E+03  0.00000000000E+00 0.  1.
         12    1    5    5    0    0 -0.25463785418E+01  0.39490054394E+02 -0.69049293047E+02  0.79584881165E+02  0.00000000000E+00 0. -1.
        -13    1    3    3    0    0 -0.52075442508E+01 -0.21051657128E+02 -0.86297714809E+01  0.23340174395E+02  0.00000000000E+00 0.  1.
         14    1    3    3    0    0  0.49577139804E+02 -0.28924193199E+02 -0.17904775812E+03  0.18802287475E+03  0.00000000000E+00 0. -1.
          5    1    4    4  501    0  0.37752774240E+02  0.18104543602E+02  0.47649062050E+02  0.63604792085E+02  0.47000000000E+01 0. -1.
         -5    1    4    4    0  501  0.32870411291E+02  0.30721759700E+03  0.62794914226E+03  0.69986093698E+03  0.47000000000E+01 0. -1.
          1    1    1    2  502    0  0.82091928934E+02 -0.21023452365E+03 -0.36640882228E+03  0.43034063807E+03  0.00000000000E+00 0. -1.
          1    1    1    2  503    0 -0.17638220036E+03 -0.78995106359E+02  0.60496624987E+03  0.63508666410E+03  0.00000000000E+00 0. -1.
<mgrwt>
<rscale>  0 0.13363159E+03</rscale>
<asrwt>0</asrwt>
<pdfrwt beam="1">  1        2 0.20438999E+00 0.13178160E+03</pdfrwt>
<pdfrwt beam="2">  1        2 0.13729593E+00 0.13550754E+03</pdfrwt>
<totfact> 0.88026489E+01</totfact>
</mgrwt>
</event>
<event>
13    1  0.2101801E-008  0.7628011E+02  0.7546771E-02  0.1342196E+00
          2   -1    0    0  503    0  0.00000000000E+00  0.00000000000E+00  0.44964022969E+04  0.44964022969E+04  0.00000000000E+00 0. -1.
          2   -1    0    0  502    0 -0.00000000000E+00 -0.00000000000E+00 -0.93504739564E+03  0.93504739564E+03  0.00000000000E+00 0. -1.
         24    2    1    2    0    0 -0.90228132463E+02 -0.12159736846E+02 -0.11706251678E+03  0.16896736394E+03  0.80977541055E+02 0.  0.
         25    2    1    2    0    0  0.43097762274E+02 -0.57494781365E+02  0.27767416753E+03  0.31287472405E+03  0.12499833055E+03 0.  0.
         24    2    1    2    0    0  0.30622458368E+02  0.20355942450E+02  0.18746921105E+03  0.21537058150E+03  0.99436828866E+02 0.  0.
        -11    1    3    3    0    0 -0.13174394993E+02  0.30083543804E+02 -0.42582918802E+02  0.53776289059E+02  0.00000000000E+00 0.  1.
         12    1    3    3    0    0 -0.77053737470E+02 -0.42243280650E+02 -0.74479597979E+02  0.11519107489E+03  0.00000000000E+00 0. -1.
        -13    1    5    5    0    0  0.52801285341E+02  0.31581395571E+02  0.17872688110E+03  0.18902025899E+03  0.00000000000E+00 0.  1.
         14    1    5    5    0    0 -0.22178826974E+02 -0.11225453121E+02  0.87423299527E+01  0.26350322516E+02  0.00000000000E+00 0. -1.
          5    1    4    4  501    0  0.27297928872E+02  0.63726947869E+01  0.99382772519E+00  0.28440567032E+02  0.47000000000E+01 0.  1.
         -5    1    4    4    0  501  0.15799833402E+02 -0.63867476152E+02  0.27668033981E+03  0.28443415702E+03  0.47000000000E+01 0.  1.
          1    1    1    2  502    0  0.74814341845E+02 -0.70731294198E-01 -0.75827319691E+03  0.76195500648E+03  0.00000000000E+00 0. -1.
          1    1    1    2  503    0 -0.58306430024E+02  0.49369307055E+02  0.39715472363E+04  0.39722820165E+04  0.00000000000E+00 0. -1.
<mgrwt>
<rscale>  0 0.75543690E+02</rscale>
<asrwt>0</asrwt>
<pdfrwt beam="1">  1        2 0.66123562E+00 0.76280114E+02</pdfrwt>
<pdfrwt beam="2">  1        2 0.13750697E+00 0.74814375E+02</pdfrwt>
<totfact> 0.17370652E+00</totfact>
</mgrwt>
</event>
<event>
13    1  0.2101801E-008  0.1529160E+03  0.7546771E-02  0.1347104E+00
         -3   -1    0    0    0  501 -0.00000000000E+00  0.00000000000E+00  0.11750088373E+04  0.11750088373E+04  0.00000000000E+00 0.  1.
          2   -1    0    0  503    0  0.00000000000E+00 -0.00000000000E+00 -0.10812548494E+04  0.10812548494E+04  0.00000000000E+00 0. -1.
         24    2    1    2    0    0  0.18336481623E+03  0.51885170995E+02  0.70610359839E+02  0.21853622327E+03  0.80358765303E+02 0.  0.
         25    2    1    2    0    0 -0.20764148183E+03  0.51459680529E+02 -0.38897842728E+03  0.46118506413E+03  0.12499745113E+03 0.  0.
         24    2    1    2    0    0  0.35232297028E+02  0.13930765241E+02 -0.24079807566E+02  0.93491905277E+02  0.82009257074E+02 0.  0.
        -13    1    5    5    0    0 -0.55918158405E+01 -0.24134257456E+02 -0.28183793388E+02  0.37524085559E+02  0.00000000000E+00 0.  1.
         14    1    5    5    0    0  0.40824112868E+02  0.38065022696E+02  0.41039858212E+01  0.55967819718E+02  0.00000000000E+00 0. -1.
        -13    1    3    3    0    0  0.46394952813E+02  0.19451283345E+02 -0.16571245525E+02  0.52966501192E+02  0.00000000000E+00 0.  1.
         14    1    3    3    0    0  0.13696986342E+03  0.32433887650E+02  0.87181605364E+02  0.16556972207E+03  0.00000000000E+00 0. -1.
          5    1    4    4  502    0 -0.17208483937E+03  0.46797603844E+02 -0.19675874411E+03  0.26559235880E+03  0.47000000000E+01 0. -1.
         -5    1    4    4    0  502 -0.35556642459E+02  0.46620766851E+01 -0.19221968317E+03  0.19559270533E+03  0.47000000000E+01 0. -1.
          1    1    1    2  503    0  0.38280147697E+01  0.35571858130E+02 -0.51665847027E+03  0.51789572859E+03  0.00000000000E+00 0. -1.
         -4    1    1    2    0  501 -0.14783646199E+02 -0.15284747490E+03  0.95286033320E+03  0.96515476550E+03  0.00000000000E+00 0.  1.
<mgrwt>
<rscale>  0 0.73965618E+02</rscale>
<asrwt>0</asrwt>
<pdfrwt beam="2">  1        2 0.15900807E+00 0.35777238E+02</pdfrwt>
<pdfrwt beam="1">  1       -3 0.17279542E+00 0.15291601E+03</pdfrwt>
<totfact> 0.41345781E+00</totfact>
</mgrwt>
</event>
<event>
13    1  0.2101801E-008  0.6621090E+02  0.7546771E-02  0.1420088E+00
          2   -1    0    0  502    0  0.00000000000E+00  0.00000000000E+00  0.18320233144E+04  0.18320233144E+04  0.00000000000E+00 0. -1.
          2   -1    0    0  503    0 -0.00000000000E+00 -0.00000000000E+00 -0.10210177224E+04  0.10210177224E+04  0.00000000000E+00 0. -1.
         24    2    1    2    0    0  0.63209984691E+02  0.49111216107E+02  0.49975163955E+00  0.11405939668E+03  0.81251969249E+02 0.  0.
         25    2    1    2    0    0  0.30173701210E+02 -0.18458074007E+03  0.98686952189E+03  0.10121842523E+04  0.12500002170E+03 0.  0.
         24    2    1    2    0    0 -0.17832483028E+02  0.66043595717E+02  0.19680377893E+03  0.22345223425E+03  0.80742922947E+02 0.  0.
        -11    1    3    3    0    0  0.58576579067E+02  0.13518303171E+02  0.30380028947E+02  0.67356560888E+02  0.00000000000E+00 0.  1.
         12    1    3    3    0    0  0.46334056241E+01  0.35592912936E+02 -0.29880277307E+02  0.46702835791E+02  0.00000000000E+00 0. -1.
        -13    1    5    5    0    0  0.22005834013E+02  0.61290147039E+02  0.13291216949E+03  0.14800805267E+03  0.00000000000E+00 0.  1.
         14    1    5    5    0    0 -0.39838317042E+02  0.47534486778E+01  0.63891609434E+02  0.75444181586E+02  0.00000000000E+00 0. -1.
          5    1    4    4  501    0  0.76103037943E+02 -0.80543768157E+02  0.50969562744E+03  0.52162313370E+03  0.47000000000E+01 0. -1.
         -5    1    4    4    0  501 -0.45929336733E+02 -0.10403697191E+03  0.47717389445E+03  0.49056111856E+03  0.47000000000E+01 0. -1.
          1    1    1    2  502    0 -0.44329635636E+02  0.11070513410E+02  0.56299508095E+03  0.56484611536E+03  0.00000000000E+00 0. -1.
          1    1    1    2  503    0 -0.31221567236E+02  0.58355414833E+02 -0.93616254145E+03  0.93849903820E+03  0.00000000000E+00 0. -1.
<mgrwt>
<rscale>  0 0.55002236E+02</rscale>
<asrwt>0</asrwt>
<pdfrwt beam="1">  1        2 0.26941520E+00 0.45691059E+02</pdfrwt>
<pdfrwt beam="2">  1        2 0.15014966E+00 0.66210897E+02</pdfrwt>
<totfact> 0.54179598E+01</totfact>
</mgrwt>
</event>
<event>
13    1  0.2101801E-008  0.1077206E+03  0.7546771E-02  0.1419045E+00
          2   -1    0    0  502    0  0.00000000000E+00  0.00000000000E+00  0.33790221649E+04  0.33790221649E+04  0.00000000000E+00 0. -1.
          2   -1    0    0  503    0 -0.00000000000E+00 -0.00000000000E+00 -0.45356444501E+03  0.45356444501E+03  0.00000000000E+00 0. -1.
         24    2    1    2    0    0  0.39861778286E+02  0.50746869215E+02  0.24309174563E+03  0.26363119472E+03  0.79016478854E+02 0.  0.
         25    2    1    2    0    0 -0.26102804296E+02  0.59527261492E+02  0.11456573541E+04  0.11542878697E+04  0.12499944780E+03 0.  0.
         24    2    1    2    0    0 -0.11980578052E+03 -0.36155398811E+02 -0.12444966706E+02  0.14664294257E+03  0.75423056815E+02 0.  0.
        -11    1    5    5    0    0  0.27216682652E+01  0.94315150546E+01 -0.12520445927E+02  0.15909824656E+02  0.00000000000E+00 0.  1.
         12    1    5    5    0    0 -0.12252744879E+03 -0.45586913865E+02  0.75479221339E-01  0.13073311792E+03  0.00000000000E+00 0. -1.
        -11    1    3    3    0    0  0.10509886835E+02  0.51587524624E+01 -0.26292309877E+01  0.11999304307E+02  0.00000000000E+00 0.  1.
         12    1    3    3    0    0  0.29351891451E+02  0.45588116753E+02  0.24572097662E+03  0.25163189041E+03  0.00000000000E+00 0. -1.
          5    1    4    4  501    0 -0.76071725209E+02  0.40132930787E+02  0.63843625559E+03  0.64422084875E+03  0.47000000000E+01 0.  1.
         -5    1    4    4    0  501  0.49968920912E+02  0.19394330705E+02  0.50722109849E+03  0.51006702096E+03  0.47000000000E+01 0.  1.
          1    1    1    2  502    0  0.28308786209E+02  0.31585056394E+00  0.19004244272E+04  0.19006352861E+04  0.00000000000E+00 0. -1.
          1    1    1    2  503    0  0.77738020325E+02 -0.74434582461E+02 -0.35127084032E+03  0.36738931684E+03  0.00000000000E+00 0. -1.
<mgrwt>
<rscale>  0 0.55223460E+02</rscale>
<asrwt>0</asrwt>
<pdfrwt beam="1">  1        2 0.49691501E+00 0.28310548E+02</pdfrwt>
<pdfrwt beam="2">  1        2 0.66700655E-01 0.10772064E+03</pdfrwt>
<totfact> 0.25993857E+01</totfact>
</mgrwt>
</event>
<event>
13    1  0.2101801E-008  0.8719283E+02  0.7546771E-02  0.1333177E+00
          2   -1    0    0  502    0  0.00000000000E+00  0.00000000000E+00  0.16928479272E+04  0.16928479272E+04  0.00000000000E+00 0. -1.
          2   -1    0    0  503    0 -0.00000000000E+00 -0.00000000000E+00 -0.18365387831E+04  0.18365387831E+04  0.00000000000E+00 0. -1.
         24    2    1    2    0    0  0.40489298024E+01  0.19863406392E+02 -0.14632247956E+03  0.16833745661E+03  0.80723494273E+02 0.  0.
         25    2    1    2    0    0  0.10319212279E+03  0.10443022054E+03  0.57872507811E+03  0.61000195872E+03  0.12500155377E+03 0.  0.
         24    2    1    2    0    0  0.42417143636E+01 -0.11571852650E+02 -0.28827984908E+03  0.29849801488E+03  0.76445363430E+02 0.  0.
        -11    1    3    3    0    0  0.15968917595E+02 -0.13949307492E+02 -0.40112791441E+01  0.21579616980E+02  0.00000000000E+00 0.  1.
         12    1    3    3    0    0 -0.11919987792E+02  0.33812713884E+02 -0.14231120042E+03  0.14675783963E+03  0.00000000000E+00 0. -1.
        -11    1    5    5    0    0 -0.89750199155E+01  0.20860486514E+02 -0.28853154721E+02  0.36718053018E+02  0.00000000000E+00 0.  1.
         12    1    5    5    0    0  0.13216734279E+02 -0.32432339164E+02 -0.25942669436E+03  0.26177996186E+03  0.00000000000E+00 0. -1.
          5    1    4    4  501    0  0.18446269196E+02 -0.97392093068E+01  0.97303411465E+01  0.23492266472E+02  0.47000000000E+01 0.  1.
         -5    1    4    4    0  501  0.84745853594E+02  0.11416942985E+03  0.56899473696E+03  0.58650969225E+03  0.47000000000E+01 0.  1.
          1    1    1    2  502    0 -0.59827203601E+02 -0.37838430632E+02  0.10796975302E+04  0.10820156181E+04  0.00000000000E+00 0. -1.
          1    1    1    2  503    0 -0.51655563355E+02 -0.74883343654E+02 -0.13675111356E+04  0.13705336619E+04  0.00000000000E+00 0. -1.
<mgrwt>
<rscale>  0 0.78563780E+02</rscale>
<asrwt>0</asrwt>
<pdfrwt beam="1">  1        2 0.24894822E+00 0.70788708E+02</pdfrwt>
<pdfrwt beam="2">  1        2 0.27007923E+00 0.87192828E+02</pdfrwt>
<totfact> 0.23033151E+01</totfact>
</mgrwt>
</event>
<event>
13    1  0.2101801E-008  0.1821995E+03  0.7546771E-02  0.1166419E+00
          2   -1    0    0  502    0  0.00000000000E+00  0.00000000000E+00  0.20822690466E+04  0.20822690466E+04  0.00000000000E+00 0. -1.
          2   -1    0    0  503    0 -0.00000000000E+00 -0.00000000000E+00 -0.24404418952E+04  0.24404418952E+04  0.00000000000E+00 0. -1.
         24    2    1    2    0    0 -0.14021624735E+03 -0.13802585228E+03 -0.37256413055E+03  0.42881933393E+03  0.79813895208E+02 0.  0.
         25    2    1    2    0    0 -0.12548415945E+03  0.41009020032E+03  0.47095834162E+02  0.44916599049E+03  0.12494727984E+03 0.  0.
         24    2    1    2    0    0 -0.48327742041E+02 -0.13624514804E+03  0.26916683837E+03  0.31596602461E+03  0.80532172549E+02 0.  0.
        -11    1    5    5    0    0 -0.54477920059E+02 -0.14270634413E+03  0.26553227002E+03  0.30633369199E+03  0.00000000000E+00 0.  1.
         12    1    5    5    0    0  0.61501780183E+01  0.64611960899E+01  0.36345683514E+01  0.96323326183E+01  0.00000000000E+00 0. -1.
        -11    1    3    3    0    0 -0.24480928570E+02  0.53508199717E+01 -0.24795381160E+02  0.35252773861E+02  0.00000000000E+00 0.  1.
         12    1    3    3    0    0 -0.11573531878E+03 -0.14337667225E+03 -0.34776874938E+03  0.39356656007E+03  0.00000000000E+00 0. -1.
          5    1    4    4  501    0  0.20505362698E+02  0.34997842651E+02 -0.11433484323E+02  0.42404403702E+02  0.47000000000E+01 0.  1.
         -5    1    4    4    0  501 -0.14598952215E+03  0.37509235767E+03  0.58529318485E+02  0.40676158679E+03  0.47000000000E+01 0.  1.
          1    1    1    2  502    0  0.17555258260E+03 -0.17612250259E+02  0.15037083319E+04  0.15140236616E+04  0.00000000000E+00 0. -1.
          1    1    1    2  503    0  0.13847556624E+03 -0.11820694975E+03 -0.18055797224E+04  0.18147359311E+04  0.00000000000E+00 0. -1.
<mgrwt>
<rscale>  0 0.18143709E+03</rscale>
<asrwt>0</asrwt>
<pdfrwt beam="1">  1        2 0.30621604E+00 0.18067787E+03</pdfrwt>
<pdfrwt beam="2">  1        2 0.35888851E+00 0.18219950E+03</pdfrwt>
<totfact> 0.63672903E+00</totfact>
</mgrwt>
</event>
<event>
13    1  0.2101801E-008  0.4969039E+02  0.7546771E-02  0.1497471E+00
          2   -1    0    0  503    0  0.00000000000E+00  0.00000000000E+00  0.15249942792E+04  0.15249942792E+04  0.00000000000E+00 0. -1.
          2   -1    0    0  502    0 -0.00000000000E+00 -0.00000000000E+00 -0.14728742663E+04  0.14728742663E+04  0.00000000000E+00 0. -1.
         24    2    1    2    0    0 -0.11439646961E+03 -0.45103907890E+03  0.10411121519E+03  0.48339560496E+03  0.79431497599E+02 0.  0.
         25    2    1    2    0    0  0.22937468719E+03 -0.71667324736E+01 -0.87308473320E+01  0.26146625329E+03  0.12499705889E+03 0.  0.
         24    2    1    2    0    0 -0.53224119483E+02  0.51544657480E+03 -0.47338158394E+03  0.70509337951E+03  0.67443097808E+02 0.  0.
        -11    1    3    3    0    0 -0.32285675503E+02 -0.28454945250E+03  0.60123127727E+02  0.29261843115E+03  0.00000000000E+00 0.  1.
         12    1    3    3    0    0 -0.82110794111E+02 -0.16648962640E+03  0.43988087464E+02  0.19077717381E+03  0.00000000000E+00 0. -1.
        -11    1    5    5    0    0 -0.85245924561E+01  0.35507277221E+03 -0.30276640712E+03  0.46670851666E+03  0.00000000000E+00 0.  1.
         12    1    5    5    0    0 -0.44699527027E+02  0.16037380259E+03 -0.17061517682E+03  0.23838486285E+03  0.00000000000E+00 0. -1.
          5    1    4    4  501    0  0.84361575060E+02 -0.33858468280E+01  0.57164174322E+02  0.10206944759E+03  0.47000000000E+01 0. -1.
         -5    1    4    4    0  501  0.14501311213E+03 -0.37808856455E+01 -0.65895021654E+02  0.15939680570E+03  0.47000000000E+01 0. -1.
          1    1    1    2  502    0 -0.35198534649E+02 -0.34973730112E+02 -0.55749019036E+03  0.55969403337E+03  0.00000000000E+00 0. -1.
          1    1    1    2  503    0 -0.26555563448E+02 -0.22267033319E+02  0.98761141936E+03  0.98821927444E+03  0.00000000000E+00 0. -1.
<mgrwt>
<rscale>  0 0.41497663E+02</rscale>
<asrwt>0</asrwt>
<pdfrwt beam="1">  1        2 0.22426387E+00 0.34655717E+02</pdfrwt>
<pdfrwt beam="2">  1        2 0.21659915E+00 0.49690389E+02</pdfrwt>
<totfact> 0.46191567E+01</totfact>
</mgrwt>
</event>
<event>
13    1  0.2101801E-008  0.7482711E+02  0.7546771E-02  0.1461613E+00
          2   -1    0    0  503    0  0.00000000000E+00  0.00000000000E+00  0.96436883773E+03  0.96436883773E+03  0.00000000000E+00 0. -1.
          2   -1    0    0  502    0 -0.00000000000E+00 -0.00000000000E+00 -0.18976421379E+04  0.18976421379E+04  0.00000000000E+00 0. -1.
         24    2    1    2    0    0  0.14891071800E+03 -0.69925610233E+02 -0.14166428382E+04  0.14285380774E+04  0.82341451649E+02 0.  0.
         25    2    1    2    0    0 -0.12729229623E+03 -0.64248938151E+02  0.15771537718E+03  0.24664406029E+03  0.12501158965E+03 0.  0.
         24    2    1    2    0    0 -0.64402353481E+02  0.86328344380E+02 -0.11713370537E+03  0.17918003184E+03  0.82370702908E+02 0.  0.
        -11    1    5    5    0    0 -0.60123691275E+02  0.58874393123E+02 -0.32678253622E+02  0.90271372416E+02  0.00000000000E+00 0.  1.
         12    1    5    5    0    0 -0.42786622064E+01  0.27453951258E+02 -0.84455451747E+02  0.88908659419E+02  0.00000000000E+00 0. -1.
        -13    1    3    3    0    0  0.62193046598E+02 -0.22325271594E+02 -0.90569106380E+03  0.90809839546E+03  0.00000000000E+00 0.  1.
         14    1    3    3    0    0  0.86717671402E+02 -0.47600338640E+02 -0.51095177436E+03  0.52043968190E+03  0.00000000000E+00 0. -1.
          5    1    4    4  501    0  0.66439768310E+01 -0.28476476319E+02  0.85036058867E+02  0.90045951820E+02  0.47000000000E+01 0.  1.
         -5    1    4    4    0  501 -0.13393627306E+03 -0.35772461832E+02  0.72679318311E+02  0.15659810847E+03  0.47000000000E+01 0.  1.
          1    1    1    2  502    0  0.18695455376E+02 -0.23017492923E+02 -0.27971354666E+03  0.28128098623E+03  0.00000000000E+00 0. -1.
          1    1    1    2  503    0  0.24088476337E+02  0.70863696926E+02  0.72250141284E+03  0.72636781990E+03  0.00000000000E+00 0. -1.
<mgrwt>
<rscale>  0 0.47104982E+02</rscale>
<asrwt>0</asrwt>
<pdfrwt beam="1">  1        2 0.14181895E+00 0.74827110E+02</pdfrwt>
<pdfrwt beam="2">  1        2 0.27906502E+00 0.29653415E+02</pdfrwt>
<totfact> 0.56742605E+01</totfact>
</mgrwt>
</event>
<event>
13    1  0.2101801E-008  0.1308828E+03  0.7546771E-02  0.1251508E+00
          2   -1    0    0  502    0  0.00000000000E+00  0.00000000000E+00  0.22840271413E+04  0.22840271413E+04  0.00000000000E+00 0. -1.
          2   -1    0    0  503    0 -0.00000000000E+00 -0.00000000000E+00 -0.38054741932E+03  0.38054741932E+03  0.00000000000E+00 0. -1.
         24    2    1    2    0    0 -0.47375326992E+02  0.30206494611E+02 -0.14827331613E+03  0.17777296412E+03  0.80382812654E+02 0.  0.
         25    2    1    2    0    0 -0.29316051254E+02  0.12683865392E+01  0.49697321197E+03  0.51329270102E+03  0.12500393528E+03 0.  0.
         24    2    1    2    0    0 -0.13594541661E+03  0.60061703588E+02  0.93442272484E+02  0.19263102066E+03  0.79288632845E+02 0.  0.
        -13    1    3    3    0    0  0.10537739239E+02 -0.99132243431E+01 -0.73999455029E+02  0.75400499400E+02  0.00000000000E+00 0.  1.
         14    1    3    3    0    0 -0.57913066231E+02  0.40119718954E+02 -0.74273861101E+02  0.10237246472E+03  0.00000000000E+00 0. -1.
        -13    1    5    5    0    0 -0.14417389977E+02  0.35151151176E+02  0.11494869072E+01  0.38010339158E+02  0.00000000000E+00 0.  1.
         14    1    5    5    0    0 -0.12152802663E+03  0.24910552412E+02  0.92292785577E+02  0.15462068150E+03  0.00000000000E+00 0. -1.
          5    1    4    4  501    0 -0.10505243333E+02 -0.84591905913E+01  0.49042571797E+03  0.49063366465E+03  0.47000000000E+01 0. -1.
         -5    1    4    4    0  501 -0.18810807921E+02  0.97275771305E+01  0.65474940053E+01  0.22659036370E+02  0.47000000000E+01 0. -1.
          1    1    1    2  502    0  0.65034598453E+02  0.77501708622E+02  0.15398189854E+04  0.15431391777E+04  0.00000000000E+00 0. -1.
          1    1    1    2  503    0  0.14760219640E+03 -0.16903829336E+03 -0.78481431737E+02  0.23773869717E+03  0.00000000000E+00 0. -1.
<mgrwt>
<rscale>  0 0.11504193E+03</rscale>
<asrwt>0</asrwt>
<pdfrwt beam="1">  1        2 0.33588634E+00 0.10111826E+03</pdfrwt>
<pdfrwt beam="2">  1        2 0.55962857E-01 0.13088283E+03</pdfrwt>
<totfact> 0.91867700E+01</totfact>
</mgrwt>
</event>
<event>
13    1  0.2101801E-008  0.2144976E+03  0.7546771E-02  0.1222625E+00
          2   -1    0    0  502    0  0.00000000000E+00  0.00000000000E+00  0.15382582479E+04  0.15382582479E+04  0.00000000000E+00 0. -1.
          2   -1    0    0  503    0 -0.00000000000E+00 -0.00000000000E+00 -0.15626540439E+04  0.15626540439E+04  0.00000000000E+00 0. -1.
         24    2    1    2    0    0  0.30285999365E+03  0.48450340557E+02 -0.26225980209E+03  0.41027358533E+03  0.73977021945E+02 0.  0.
         25    2    1    2    0    0 -0.64568550961E+02 -0.24166633601E+03  0.23296442434E+03  0.36396122571E+03  0.12499454019E+03 0.  0.
         24    2    1    2    0    0 -0.68117818804E+02  0.66737025162E+02 -0.49385617271E+03  0.50999823303E+03  0.84323250692E+02 0.  0.
        -11    1    3    3    0    0  0.22024353783E+02  0.18964737412E+02 -0.46765063039E+02  0.55060916680E+02  0.00000000000E+00 0.  1.
         12    1    3    3    0    0  0.28083563987E+03  0.29485603144E+02 -0.21549473905E+03  0.35521266865E+03  0.00000000000E+00 0. -1.
        -13    1    5    5    0    0 -0.69399747037E+02  0.83544094076E+02 -0.39247884220E+03  0.40722915185E+03  0.00000000000E+00 0.  1.
         14    1    5    5    0    0  0.12819282329E+01 -0.16807068913E+02 -0.10137733051E+03  0.10276908118E+03  0.00000000000E+00 0. -1.
          5    1    4    4  501    0  0.23101412800E+02 -0.15289915582E+03  0.12465251958E+03  0.19867603721E+03  0.47000000000E+01 0. -1.
         -5    1    4    4    0  501 -0.87669963761E+02 -0.88767180196E+02  0.10831190476E+03  0.16528518851E+03  0.47000000000E+01 0. -1.
          1    1    1    2  502    0 -0.11408950948E+03  0.18746352922E+03  0.11446479612E+04  0.11654947216E+04  0.00000000000E+00 0. -1.
          1    1    1    2  503    0 -0.56084114403E+02 -0.60984558927E+02 -0.64589220680E+03  0.65118452617E+03  0.00000000000E+00 0. -1.
<mgrwt>
<rscale>  0 0.13331044E+03</rscale>
<asrwt>0</asrwt>
<pdfrwt beam="1">  1        2 0.22621445E+00 0.21449762E+03</pdfrwt>
<pdfrwt beam="2">  1        2 0.22980206E+00 0.82852546E+02</pdfrwt>
<totfact> 0.34122803E+01</totfact>
</mgrwt>
</event>
<event>
13    1  0.2101801E-008  0.5897446E+02  0.7546771E-02  0.1544702E+00
         -3   -1    0    0    0  501 -0.00000000000E+00  0.00000000000E+00  0.11493773188E+04  0.11493773188E+04  0.00000000000E+00 0.  1.
          2   -1    0    0  503    0  0.00000000000E+00 -0.00000000000E+00 -0.33897049078E+04  0.33897049078E+04  0.00000000000E+00 0. -1.
         24    2    1    2    0    0 -0.53554668829E+01  0.32344362998E+02 -0.72946301629E+02  0.11349564893E+03  0.80531115489E+02 0.  0.
         25    2    1    2    0    0 -0.12528989509E+03 -0.52640826004E+02 -0.21367123588E+04  0.21446757990E+04  0.12500385707E+03 0.  0.
         24    2    1    2    0    0  0.13521762695E+03 -0.22514949882E+02 -0.28098624455E+03  0.32283021958E+03  0.80469568408E+02 0.  0.
        -11    1    3    3    0    0 -0.98542384560E+01  0.48446666993E+02 -0.12799923749E+02  0.51068812462E+02  0.00000000000E+00 0.  1.
         12    1    3    3    0    0  0.44987715731E+01 -0.16102303995E+02 -0.60146377881E+02  0.62426836471E+02  0.00000000000E+00 0. -1.
        -13    1    5    5    0    0  0.78133757996E+02  0.22199289187E+02 -0.10699622231E+03  0.13433497001E+03  0.00000000000E+00 0.  1.
         14    1    5    5    0    0  0.57083868952E+02 -0.44714239069E+02 -0.17399002224E+03  0.18849524957E+03  0.00000000000E+00 0. -1.
          5    1    4    4  502    0 -0.35488341135E+01 -0.16100331186E+01 -0.28651142089E+01  0.67442797716E+01  0.47000000000E+01 0. -1.
         -5    1    4    4    0  502 -0.12174106098E+03 -0.51030792885E+02 -0.21338472446E+04  0.21379315192E+04  0.47000000000E+01 0. -1.
          1    1    1    2  503    0 -0.14855902778E+02 -0.15265079108E+02 -0.85296097168E+03  0.85322689813E+03  0.00000000000E+00 0. -1.
         -4    1    1    2    0  501  0.10283637802E+02  0.58076491996E+02  0.11032782877E+04  0.11048536610E+04  0.00000000000E+00 0.  1.
<mgrwt>
<rscale>  0 0.35442886E+02</rscale>
<asrwt>0</asrwt>
<pdfrwt beam="2">  1        2 0.49848601E+00 0.21300716E+02</pdfrwt>
<pdfrwt beam="1">  1       -3 0.16902608E+00 0.58974458E+02</pdfrwt>
<totfact> 0.37969564E-01</totfact>
</mgrwt>
</event>
<event>
13    1  0.2101801E-008  0.1049339E+03  0.7546771E-02  0.1421960E+00
          2   -1    0    0  503    0  0.00000000000E+00  0.00000000000E+00  0.12204879098E+03  0.12204879098E+03  0.00000000000E+00 0. -1.
          2   -1    0    0  502    0 -0.00000000000E+00 -0.00000000000E+00 -0.29436295992E+04  0.29436295992E+04  0.00000000000E+00 0. -1.
         24    2    1    2    0    0 -0.30621831582E+02  0.11840095293E+02 -0.10079345267E+03  0.13449236768E+03  0.82770722100E+02 0.  0.
         25    2    1    2    0    0 -0.14409508307E+02  0.11171905236E+02 -0.53530471695E+03  0.55000775863E+03  0.12499979669E+03 0.  0.
         24    2    1    2    0    0  0.48540250624E+02 -0.12526118606E+03 -0.31489206773E+03  0.35156371005E+03  0.79959409973E+02 0.  0.
        -13    1    3    3    0    0  0.16335797349E+02 -0.14827962465E+02 -0.67589737603E+02  0.71099222043E+02  0.00000000000E+00 0.  1.
         14    1    3    3    0    0 -0.46957628931E+02  0.26668057759E+02 -0.33203715067E+02  0.63393145636E+02  0.00000000000E+00 0. -1.
        -13    1    5    5    0    0 -0.18398019821E+02 -0.18021018447E+02 -0.27936001479E+02  0.37995584189E+02  0.00000000000E+00 0.  1.
         14    1    5    5    0    0  0.66938270445E+02 -0.10724016761E+03 -0.28695606625E+03  0.31356812586E+03  0.00000000000E+00 0. -1.
          5    1    4    4  501    0  0.36625337141E+01  0.49973784643E+02 -0.94157227021E+02  0.10676360197E+03  0.47000000000E+01 0. -1.
         -5    1    4    4    0  501 -0.18072042021E+02 -0.38801879407E+02 -0.44114748992E+03  0.44324415666E+03  0.47000000000E+01 0. -1.
          1    1    1    2  502    0 -0.25296176975E+02 -0.12950885018E+02 -0.19067199630E+04  0.19069317343E+04  0.00000000000E+00 0. -1.
          1    1    1    2  503    0  0.21787266240E+02  0.11520007055E+03  0.36129392135E+02  0.12268281950E+03  0.00000000000E+00 0. -1.
<mgrwt>
<rscale>  0 0.54608466E+02</rscale>
<asrwt>0</asrwt>
<pdfrwt beam="1">  1        2 0.17948354E-01 0.10493392E+03</pdfrwt>
<pdfrwt beam="2">  1        2 0.43288666E+00 0.28418691E+02</pdfrwt>
<totfact> 0.17927641E+02</totfact>
</mgrwt>
</event>
<event>
13    1  0.2101801E-008  0.1930672E+03  0.7546771E-02  0.1260473E+00
          2   -1    0    0  503    0  0.00000000000E+00  0.00000000000E+00  0.30950070325E+04  0.30950070325E+04  0.00000000000E+00 0. -1.
          2   -1    0    0  502    0 -0.00000000000E+00 -0.00000000000E+00 -0.48038431239E+04  0.48038431239E+04  0.00000000000E+00 0. -1.
         24    2    1    2    0    0  0.44439194948E+03  0.39711139600E+03 -0.84174209504E+03  0.10352588254E+04  0.89718534750E+02 0.  0.
         25    2    1    2    0    0  0.32513584750E+02  0.58155996561E+02  0.91992474038E+03  0.93076557285E+03  0.12499508195E+03 0.  0.
         24    2    1    2    0    0 -0.22677738793E+03 -0.43718621300E+03 -0.33768670539E+03  0.60222069695E+03  0.77959530017E+02 0.  0.
        -13    1    5    5    0    0 -0.14283508975E+03 -0.24827854085E+03 -0.23950093547E+03  0.37336951510E+03  0.00000000000E+00 0.  1.
         14    1    5    5    0    0 -0.83942298184E+02 -0.18890767215E+03 -0.98185769921E+02  0.22885118185E+03  0.00000000000E+00 0. -1.
        -13    1    3    3    0    0  0.42068763744E+03  0.35590352313E+03 -0.80323782841E+03  0.97408234511E+03  0.00000000000E+00 0.  1.
         14    1    3    3    0    0  0.23704312041E+02  0.41207872865E+02 -0.38504266628E+02  0.61176480316E+02  0.00000000000E+00 0. -1.
          5    1    4    4  501    0 -0.28773282473E+02 -0.21589427586E+02  0.15204932036E+03  0.15631727669E+03  0.47000000000E+01 0.  1.
         -5    1    4    4    0  501  0.61286867223E+02  0.79745424147E+02  0.76787542001E+03  0.77444829616E+03  0.47000000000E+01 0.  1.
          1    1    1    2  502    0 -0.19263014587E+03  0.70038653590E+01 -0.33867203605E+04  0.33922013836E+04  0.00000000000E+00 0. -1.
          1    1    1    2  503    0 -0.57498000426E+02 -0.25085044914E+02  0.19373883291E+04  0.19384036776E+04  0.00000000000E+00 0. -1.
<mgrwt>
<rscale>  0 0.11005207E+03</rscale>
<asrwt>0</asrwt>
<pdfrwt beam="1">  1        2 0.45514810E+00 0.62731806E+02</pdfrwt>
<pdfrwt beam="2">  1        2 0.70644750E+00 0.19306725E+03</pdfrwt>
<totfact> 0.65350186E-02</totfact>
</mgrwt>
</event>
<event>
13    1  0.2101801E-008  0.1483009E+03  0.7546771E-02  0.1372398E+00
          2   -1    0    0  503    0  0.00000000000E+00  0.00000000000E+00  0.28461090405E+04  0.28461090405E+04  0.00000000000E+00 0. -1.
          2   -1    0    0  502    0 -0.00000000000E+00 -0.00000000000E+00 -0.27217471139E+04  0.27217471139E+04  0.00000000000E+00 0. -1.
         24    2    1    2    0    0 -0.40573774547E+03  0.11832057802E+04 -0.16144686521E+04  0.20451543827E+04  0.10746340789E+03 0.  0.
         25    2    1    2    0    0  0.14941684282E+03 -0.10845766708E+04  0.85388527700E+03  0.13940504772E+04  0.12499887576E+03 0.  0.
         24    2    1    2    0    0  0.20986802667E+03  0.33982974819E+02 -0.34950950760E+02  0.22980788283E+03  0.79941621540E+02 0.  0.
        -11    1    3    3    0    0 -0.23647123874E+03  0.69418552803E+03 -0.85933451739E+03  0.11297203224E+04  0.00000000000E+00 0.  1.
         12    1    3    3    0    0 -0.16926650673E+03  0.48902025220E+03 -0.75513413471E+03  0.91543406031E+03  0.00000000000E+00 0. -1.
        -13    1    5    5    0    0  0.16323534102E+03  0.44013609851E+02 -0.55399414125E+02  0.17791028496E+03  0.00000000000E+00 0.  1.
         14    1    5    5    0    0  0.46632685650E+02 -0.10030635033E+02  0.20448463365E+02  0.51897597864E+02  0.00000000000E+00 0. -1.
          5    1    4    4  501    0  0.30744674567E+02 -0.41316682546E+03  0.25477152320E+03  0.48639765594E+03  0.47000000000E+01 0.  1.
         -5    1    4    4    0  501  0.11867216825E+03 -0.67140984531E+03  0.59911375380E+03  0.90765282124E+03  0.47000000000E+01 0.  1.
          1    1    1    2  502    0  0.75841767401E+02 -0.12753702340E+03 -0.47806529366E+03  0.50056377318E+03  0.00000000000E+00 0. -1.
          1    1    1    2  503    0 -0.29388891417E+02 -0.50750608825E+01  0.13979615460E+04  0.13982796385E+04  0.00000000000E+00 0. -1.
<mgrwt>
<rscale>  0 0.66504928E+02</rscale>
<asrwt>0</asrwt>
<pdfrwt beam="1">  1        2 0.41854545E+00 0.29823869E+02</pdfrwt>
<pdfrwt beam="2">  1        2 0.40025693E+00 0.14830086E+03</pdfrwt>
<totfact> 0.25217141E+00</totfact>
</mgrwt>
</event>
<event>
13    1  0.2101801E-008  0.9653220E+02  0.7546771E-02  0.1307729E+00
          2   -1    0    0  502    0  0.00000000000E+00  0.00000000000E+00  0.42471381202E+03  0.42471381202E+03  0.00000000000E+00 0. -1.
          2   -1    0    0  503    0 -0.00000000000E+00 -0.00000000000E+00 -0.16647326436E+04  0.16647326436E+04  0.00000000000E+00 0. -1.
         24    2    1    2    0    0 -0.19855769675E+03  0.45150770830E+03 -0.59516089501E+02  0.50475952047E+03  0.89194388851E+02 0.  0.
         25    2    1    2    0    0  0.11094305672E+03 -0.34434089646E+03 -0.31613563690E+03  0.49643311721E+03  0.12500033653E+03 0.  0.
         24    2    1    2    0    0  0.28921267450E+02  0.48640900142E+02 -0.17249809485E+03  0.19857468832E+03  0.80460780747E+02 0.  0.
        -11    1    5    5    0    0  0.45542027008E+02  0.46261292560E+01 -0.52339417993E+02  0.69533387460E+02  0.00000000000E+00 0.  1.
         12    1    5    5    0    0 -0.16620759558E+02  0.44014770886E+02 -0.12015867685E+03  0.12904130086E+03  0.00000000000E+00 0. -1.
        -13    1    3    3    0    0 -0.10948473381E+03  0.17516086034E+03 -0.57456239778E+02  0.21440488199E+03  0.00000000000E+00 0.  1.
         14    1    3    3    0    0 -0.89072962938E+02  0.27634684796E+03 -0.20598497229E+01  0.29035463848E+03  0.00000000000E+00 0. -1.
          5    1    4    4  501    0  0.80473203631E+01 -0.84418786333E+00 -0.47375284657E+02  0.48290574800E+02  0.47000000000E+01 0.  1.
         -5    1    4    4    0  501  0.10289573636E+03 -0.34349670859E+03 -0.26876035225E+03  0.44814254241E+03  0.47000000000E+01 0.  1.
          1    1    1    2  502    0  0.67858486115E+01 -0.94604445538E+02  0.73575553972E+02  0.12003920609E+03  0.00000000000E+00 0. -1.
          1    1    1    2  503    0  0.51907523970E+02 -0.61203266450E+02 -0.76544456426E+03  0.76963992349E+03  0.00000000000E+00 0. -1.
<mgrwt>
<rscale>  0 0.88015967E+02</rscale>
<asrwt>0</asrwt>
<pdfrwt beam="1">  1        2 0.62457914E-01 0.96532202E+02</pdfrwt>
<pdfrwt beam="2">  1        2 0.24481362E+00 0.80251049E+02</pdfrwt>
<totfact> 0.16644232E+02</totfact>
</mgrwt>
</event>
<event>
13    1  0.2101801E-008  0.1037995E+03  0.7546771E-02  0.1281392E+00
          2   -1    0    0  502    0  0.00000000000E+00  0.00000000000E+00  0.13702825820E+04  0.13702825820E+04  0.00000000000E+00 0. -1.
          2   -1    0    0  503    0 -0.00000000000E+00 -0.00000000000E+00 -0.13196897448E+04  0.13196897448E+04  0.00000000000E+00 0. -1.
         24    2    1    2    0    0 -0.93987211712E+01  0.14744916484E+02 -0.57006961075E+02  0.99854415396E+02  0.80095955836E+02 0.  0.
         25    2    1    2    0    0  0.89152568739E+02  0.12833175582E+03 -0.13204149864E+03  0.23974488082E+03  0.12500172179E+03 0.  0.
         24    2    1    2    0    0  0.11088870212E+02  0.28799369545E+02  0.81942261749E+01  0.86641357866E+02  0.80543235728E+02 0.  0.
        -11    1    5    5    0    0  0.24901745008E+02 -0.14088560797E+02  0.25548240495E+02  0.38357490040E+02  0.00000000000E+00 0.  1.
         12    1    5    5    0    0 -0.13812874796E+02  0.42887930342E+02 -0.17354014320E+02  0.48283867826E+02  0.00000000000E+00 0. -1.
        -11    1    3    3    0    0 -0.39031483195E+02 -0.75632935970E+01 -0.11991699055E+02  0.41526629248E+02  0.00000000000E+00 0.  1.
         12    1    3    3    0    0  0.29632762024E+02  0.22308210081E+02 -0.45015262020E+02  0.58327786148E+02  0.00000000000E+00 0. -1.
          5    1    4    4  501    0  0.32195218284E+02 -0.16083896906E+02 -0.63543196895E+00  0.36300380078E+02  0.47000000000E+01 0.  1.
         -5    1    4    4    0  501  0.56957350455E+02  0.14441565272E+03 -0.13140606667E+03  0.20344450074E+03  0.47000000000E+01 0.  1.
          1    1    1    2  502    0 -0.13252608244E+03 -0.53923941990E+02  0.12396084674E+04  0.12478381732E+04  0.00000000000E+00 0. -1.
          1    1    1    2  503    0  0.41683364657E+02 -0.11795209986E+03 -0.10081613966E+04  0.10158934995E+04  0.00000000000E+00 0. -1.
<mgrwt>
<rscale>  0 0.99480692E+02</rscale>
<asrwt>0</asrwt>
<pdfrwt beam="1">  1        2 0.20151214E+00 0.10379954E+03</pdfrwt>
<pdfrwt beam="2">  1        2 0.19407202E+00 0.95341539E+02</pdfrwt>
<totfact> 0.57205231E+01</totfact>
</mgrwt>
</event>
<event>
13    1  0.2101801E-008  0.9290232E+02  0.7546771E-02  0.1344617E+00
          2   -1    0    0  503    0  0.00000000000E+00  0.00000000000E+00  0.24229104407E+04  0.24229104407E+04  0.00000000000E+00 0. -1.
         -3   -1    0    0    0  501 -0.00000000000E+00 -0.00000000000E+00 -0.11070872488E+04  0.11070872488E+04  0.00000000000E+00 0.  1.
         24    2    1    2    0    0  0.15606370593E+01 -0.20730051959E+03 -0.90370176944E+03  0.93088293786E+03  0.83007318342E+02 0.  0.
         25    2    1    2    0    0  0.10173943039E+03  0.11677539646E+03  0.17719136824E+03  0.26646662158E+03  0.12498109667E+03 0.  0.
         24    2    1    2    0    0 -0.33917801641E+02  0.70559154696E+02  0.63634553838E+03  0.64619525566E+03  0.80645227009E+02 0.  0.
        -11    1    5    5    0    0 -0.58314446698E+02  0.57190317433E+02  0.40272963592E+03  0.41092878550E+03  0.00000000000E+00 0.  1.
         12    1    5    5    0    0  0.24396645057E+02  0.13368837262E+02  0.23361590246E+03  0.23526647016E+03  0.00000000000E+00 0. -1.
        -13    1    3    3    0    0  0.16712502877E+02 -0.77026016569E+02 -0.19825179421E+03  0.21334499968E+03  0.00000000000E+00 0.  1.
         14    1    3    3    0    0 -0.15151865817E+02 -0.13027450303E+03 -0.70544997523E+03  0.71753793818E+03  0.00000000000E+00 0. -1.
          5    1    4    4  502    0  0.24304373262E+02  0.91863398393E+02  0.32732610055E+02  0.10061361878E+03  0.47000000000E+01 0.  1.
         -5    1    4    4    0  502  0.77435057124E+02  0.24911998066E+02  0.14445875819E+03  0.16585300280E+03  0.47000000000E+01 0.  1.
          1    1    1    2  503    0 -0.84746022727E+02 -0.38198909594E+02  0.15383000777E+04  0.15411061527E+04  0.00000000000E+00 0. -1.
         -4    1    1    2    0  501  0.15363756923E+02  0.58164878034E+02 -0.13231202302E+03  0.14534672166E+03  0.00000000000E+00 0.  1.
<mgrwt>
<rscale>  0 0.74759495E+02</rscale>
<asrwt>0</asrwt>
<pdfrwt beam="1">  1        2 0.35631036E+00 0.92902316E+02</pdfrwt>
<pdfrwt beam="2">  1       -3 0.16280695E+00 0.60159771E+02</pdfrwt>
<totfact> 0.10078312E+00</totfact>
</mgrwt>
</event>
<event>
13    1  0.2101801E-008  0.3539653E+02  0.7546771E-02  0.1571440E+00
         -1   -1    0    0    0  501 -0.00000000000E+00  0.00000000000E+00  0.21270026096E+04  0.21270026096E+04  0.00000000000E+00 0.  1.
          2   -1    0    0  503    0  0.00000000000E+00 -0.00000000000E+00 -0.16160415563E+03  0.16160415563E+03  0.00000000000E+00 0. -1.
         24    2    1    2    0    0 -0.18199129072E+03  0.32248073143E+02  0.75848781884E+03  0.78505820551E+03  0.82775881702E+02 0.  0.
         25    2    1    2    0    0  0.80074559483E+02  0.72153744257E+02  0.53678506107E+02  0.17356397917E+03  0.12499989984E+03 0.  0.
         24    2    1    2    0    0  0.54413422236E+02 -0.66979610071E+02  0.25334746494E+03  0.28002436260E+03  0.82350573616E+02 0.  0.
        -11    1    3    3    0    0 -0.18628839732E+02 -0.10803189840E+01  0.17629925233E+02  0.25671287903E+02  0.00000000000E+00 0.  1.
         12    1    3    3    0    0 -0.16336245099E+03  0.33328392127E+02  0.74085789361E+03  0.75938691761E+03  0.00000000000E+00 0. -1.
        -13    1    5    5    0    0  0.74506973076E+02 -0.41230048818E+02  0.16206518189E+03  0.18307465456E+03  0.00000000000E+00 0.  1.
         14    1    5    5    0    0 -0.20093550840E+02 -0.25749561253E+02  0.91282283045E+02  0.96949708034E+02  0.00000000000E+00 0. -1.
          5    1    4    4  502    0  0.45128946605E+02  0.85278785967E+02 -0.12534732235E+02  0.97407918928E+02  0.47000000000E+01 0. -1.
         -5    1    4    4    0  502  0.34945612878E+02 -0.13125041709E+02  0.66213238342E+02  0.76156060238E+02  0.47000000000E+01 0. -1.
          1    1    1    2  503    0  0.33593382024E+02 -0.10905625901E+02 -0.70637974768E+02  0.78975765090E+02  0.00000000000E+00 0. -1.
         -2    1    1    2    0  501  0.13909926977E+02 -0.26516581428E+02  0.97052263883E+03  0.97098445283E+03  0.00000000000E+00 0.  1.
<mgrwt>
<rscale>  0 0.32556063E+02</rscale>
<asrwt>0</asrwt>
<pdfrwt beam="2">  1        2 0.23765318E-01 0.35396533E+02</pdfrwt>
<pdfrwt beam="1">  1       -1 0.31279449E+00 0.29943533E+02</pdfrwt>
<totfact> 0.10548274E+01</totfact>
</mgrwt>
</event>
<event>
13    1  0.2101801E-008  0.5755758E+02  0.7546771E-02  0.1409662E+00
          2   -1    0    0  503    0  0.00000000000E+00  0.00000000000E+00  0.21114525207E+04  0.21114525207E+04  0.00000000000E+00 0. -1.
          2   -1    0    0  502    0 -0.00000000000E+00 -0.00000000000E+00 -0.99088442644E+02  0.99088442644E+02  0.00000000000E+00 0. -1.
         24    2    1    2    0    0 -0.46787378815E+02  0.39415676971E+02  0.48533389685E+02  0.11221149957E+03  0.80580868157E+02 0.  0.
         25    2    1    2    0    0  0.41835420237E+02  0.21809913208E+02  0.51640242289E+03  0.53340420749E+03  0.12499084567E+03 0.  0.
         24    2    1    2    0    0  0.14384795397E+02 -0.53567377041E+02  0.10716889946E+03  0.14437836756E+03  0.79268870228E+02 0.  0.
        -11    1    3    3    0    0  0.72846380908E+01  0.37349398656E+02  0.43607569374E+02  0.57876278722E+02  0.00000000000E+00 0.  1.
         12    1    3    3    0    0 -0.54072016905E+02  0.20662783159E+01  0.49258203109E+01  0.54335220843E+02  0.00000000000E+00 0. -1.
        -13    1    5    5    0    0 -0.25250702072E+02 -0.40997976977E+02  0.83886018569E+02  0.96722780061E+02  0.00000000000E+00 0.  1.
         14    1    5    5    0    0  0.39635497469E+02 -0.12569400064E+02  0.23282880888E+02  0.47655587500E+02  0.00000000000E+00 0. -1.
          5    1    4    4  501    0  0.42996989653E+02  0.51917565629E+02  0.48480494349E+03  0.48949167304E+03  0.47000000000E+01 0.  1.
         -5    1    4    4    0  501 -0.11615694159E+01 -0.30107652420E+02  0.31597479400E+02  0.43912534454E+02  0.47000000000E+01 0.  1.
          1    1    1    2  502    0  0.35450501678E+02 -0.44612272875E+02 -0.18983389625E+02  0.60061319016E+02  0.00000000000E+00 0. -1.
          1    1    1    2  503    0 -0.44883338498E+02  0.36954059736E+02  0.13592427557E+04  0.13604855697E+04  0.00000000000E+00 0. -1.
<mgrwt>
<rscale>  0 0.57269262E+02</rscale>
<asrwt>0</asrwt>
<pdfrwt beam="1">  1        2 0.31050770E+00 0.57557576E+02</pdfrwt>
<pdfrwt beam="2">  1        2 0.14571831E-01 0.56982392E+02</pdfrwt>
<totfact> 0.49860807E+02</totfact>
</mgrwt>
</event>
<event>
13    1  0.2101801E-008  0.1810829E+03  0.7546771E-02  0.1282954E+00
          2   -1    0    0  502    0  0.00000000000E+00  0.00000000000E+00  0.96454761234E+03  0.96454761234E+03  0.00000000000E+00 0. -1.
          2   -1    0    0  503    0 -0.00000000000E+00 -0.00000000000E+00 -0.16718298569E+04  0.16718298569E+04  0.00000000000E+00 0. -1.
         24    2    1    2    0    0  0.10305753526E+03  0.12484418090E+03 -0.30948571708E+03  0.35979411442E+03  0.86391380462E+02 0.  0.
         25    2    1    2    0    0 -0.12490928583E+03  0.69020611489E+01  0.41760470767E+03  0.45350717462E+03  0.12500038972E+03 0.  0.
         24    2    1    2    0    0 -0.71826381110E+02  0.61844119599E+02 -0.60165903964E+02  0.13897849128E+03  0.81922895986E+02 0.  0.
        -11    1    3    3    0    0  0.31772692618E+02 -0.78115687403E+01 -0.49323154300E+02  0.59188665743E+02  0.00000000000E+00 0.  1.
         12    1    3    3    0    0  0.71284842637E+02  0.13265574964E+03 -0.26016256278E+03  0.30060544868E+03  0.00000000000E+00 0. -1.
        -11    1    5    5    0    0 -0.67656963324E+02  0.79436901709E+02 -0.61023144662E+02  0.12087808000E+03  0.00000000000E+00 0.  1.
         12    1    5    5    0    0 -0.41694177861E+01 -0.17592782110E+02  0.85724069811E+00  0.18100411284E+02  0.00000000000E+00 0. -1.
          5    1    4    4  501    0  0.87919632238E+01  0.37892820836E+02  0.81475150645E+02  0.90407160452E+02  0.47000000000E+01 0.  1.
         -5    1    4    4    0  501 -0.13370124905E+03 -0.30990759687E+02  0.33612955703E+03  0.36310001417E+03  0.47000000000E+01 0.  1.
          1    1    1    2  502    0  0.43718937794E+02  0.31436187953E+02  0.45192767441E+03  0.45512438117E+03  0.00000000000E+00 0. -1.
          1    1    1    2  503    0  0.49959193890E+02 -0.22502654960E+03 -0.12071630056E+04  0.12289733077E+04  0.00000000000E+00 0. -1.
<mgrwt>
<rscale>  0 0.98746686E+02</rscale>
<asrwt>0</asrwt>
<pdfrwt beam="1">  1        2 0.14184524E+00 0.53847743E+02</pdfrwt>
<pdfrwt beam="2">  1        2 0.24585733E+00 0.18108295E+03</pdfrwt>
<totfact> 0.61947743E+01</totfact>
</mgrwt>
</event>
<event>
13    1  0.2101801E-008  0.1285107E+03  0.7546771E-02  0.1276474E+00
         -1   -1    0    0    0  501 -0.00000000000E+00  0.00000000000E+00  0.22643309236E+03  0.22643309236E+03  0.00000000000E+00 0.  1.
          2   -1    0    0  503    0  0.00000000000E+00 -0.00000000000E+00 -0.34179804457E+04  0.34179804457E+04  0.00000000000E+00 0. -1.
         24    2    1    2    0    0 -0.12870779764E+03 -0.38910442026E+02 -0.89651490852E+02  0.18037272961E+03  0.80107503419E+02 0.  0.
         25    2    1    2    0    0 -0.13664918628E+03 -0.12518015380E+02 -0.17749818817E+04  0.17846613408E+04  0.12500288147E+03 0.  0.
         24    2    1    2    0    0  0.10745909039E+03  0.79806864016E+01 -0.36487181969E+03  0.38897108289E+03  0.80968580718E+02 0.  0.
        -11    1    3    3    0    0 -0.22072620798E+02  0.15449000503E+02  0.54640402109E+01  0.27490506377E+02  0.00000000000E+00 0.  1.
         12    1    3    3    0    0 -0.10663517684E+03 -0.54359442529E+02 -0.95115531063E+02  0.15288222323E+03  0.00000000000E+00 0. -1.
        -13    1    5    5    0    0  0.11054737288E+03  0.27288772168E+02 -0.32852794570E+03  0.34770103515E+03  0.00000000000E+00 0.  1.
         14    1    5    5    0    0 -0.30882824862E+01 -0.19308085767E+02 -0.36343873984E+02  0.41270047745E+02  0.00000000000E+00 0. -1.
          5    1    4    4  502    0 -0.11661960200E+03  0.35211330226E+01 -0.72399797723E+03  0.73335372841E+03  0.47000000000E+01 0.  1.
         -5    1    4    4    0  502 -0.20029584281E+02 -0.16039148403E+02 -0.10509839045E+04  0.10513076124E+04  0.47000000000E+01 0.  1.
          1    1    1    2  503    0  0.33141791950E+02  0.73585110461E+02 -0.10994359615E+04  0.11023940223E+04  0.00000000000E+00 0. -1.
         -2    1    1    2    0  501  0.12475610157E+03 -0.30137339457E+02  0.13739380038E+03  0.18801436246E+03  0.00000000000E+00 0.  1.
<mgrwt>
<rscale>  0 0.10183976E+03</rscale>
<asrwt>0</asrwt>
<pdfrwt beam="2">  1        2 0.50264417E+00 0.80704070E+02</pdfrwt>
<pdfrwt beam="1">  1       -1 0.33298985E-01 0.12851070E+03</pdfrwt>
<totfact> 0.17143046E+01</totfact>
</mgrwt>
</event>
<event>
13    1  0.2101801E-008  0.7660708E+02  0.7546771E-02  0.1463900E+00
          2   -1    0    0  503    0  0.00000000000E+00  0.00000000000E+00  0.75206981655E+03  0.75206981655E+03  0.00000000000E+00 0. -1.
         -1   -1    0    0    0  501 -0.00000000000E+00 -0.00000000000E+00 -0.99877878023E+03  0.99877878023E+03  0.00000000000E+00 0.  1.
         24    2    1    2    0    0  0.14282351368E+02 -0.10077687219E+03 -0.46983182826E+03  0.48706425672E+03  0.78292271605E+02 0.  0.
         25    2    1    2    0    0  0.38091418743E+02  0.55793204718E+02 -0.25470326945E+02  0.14435901152E+03  0.12500779487E+03 0.  0.
         24    2    1    2    0    0  0.19654728572E+02  0.14111816926E+02  0.44575879454E+03  0.45348502584E+03  0.79764114846E+02 0.  0.
        -11    1    3    3    0    0  0.17896408719E+02 -0.11351760049E+03 -0.41130330099E+03  0.42705612332E+03  0.00000000000E+00 0.  1.
         12    1    3    3    0    0 -0.36140573510E+01  0.12740728299E+02 -0.58528527277E+02  0.60008133393E+02  0.00000000000E+00 0. -1.
        -13    1    5    5    0    0 -0.91821633055E-01  0.43317839882E+02  0.16787483942E+03  0.17337360062E+03  0.00000000000E+00 0.  1.
         14    1    5    5    0    0  0.19746550205E+02 -0.29206022955E+02  0.27788395512E+03  0.28011142521E+03  0.00000000000E+00 0. -1.
          5    1    4    4  502    0 -0.31262454675E+02 -0.11958538387E+02 -0.32690071105E+02  0.47022106094E+02  0.47000000000E+01 0. -1.
         -5    1    4    4    0  502  0.69353873418E+02  0.67751743104E+02  0.72197441600E+01  0.97336905424E+02  0.47000000000E+01 0. -1.
          1    1    1    2  503    0 -0.54814061138E+02  0.53571752136E+02  0.22763163422E+03  0.24018883160E+03  0.00000000000E+00 0. -1.
         -2    1    1    2    0  501 -0.17214437545E+02 -0.22699901587E+02 -0.42479723723E+03  0.42575147111E+03  0.00000000000E+00 0.  1.
<mgrwt>
<rscale>  0 0.46716787E+02</rscale>
<asrwt>0</asrwt>
<pdfrwt beam="1">  1        2 0.11059850E+00 0.76607083E+02</pdfrwt>
<pdfrwt beam="2">  1       -1 0.14687923E+00 0.28488987E+02</pdfrwt>
<totfact> 0.22580386E+01</totfact>
</mgrwt>
</event>
<event>
13    1  0.2101801E-008  0.1977328E+03  0.7546771E-02  0.1250905E+00
          2   -1    0    0  502    0  0.00000000000E+00  0.00000000000E+00  0.13862166523E+04  0.13862166523E+04  0.00000000000E+00 0. -1.
          2   -1    0    0  503    0 -0.00000000000E+00 -0.00000000000E+00 -0.22392787827E+04  0.22392787827E+04  0.00000000000E+00 0. -1.
         24    2    1    2    0    0 -0.99014845571E+02  0.65653227922E+02 -0.36677950853E+03  0.39395262294E+03  0.80976387064E+02 0.  0.
         25    2    1    2    0    0  0.19505577349E+03 -0.91874934776E+02  0.20594100684E+03  0.32328060083E+03  0.12494354789E+03 0.  0.
         24    2    1    2    0    0  0.17271650932E+03  0.12881377251E+03 -0.13009757691E+03  0.26397431720E+03  0.79580651199E+02 0.  0.
        -11    1    5    5    0    0  0.15722294576E+03  0.13781334635E+03 -0.10736522870E+03  0.23502949908E+03  0.00000000000E+00 0.  1.
         12    1    5    5    0    0  0.15493563564E+02 -0.89995738384E+01 -0.22732348204E+02  0.28944818121E+02  0.00000000000E+00 0. -1.
        -13    1    3    3    0    0 -0.19910615916E+02 -0.13438620872E+02 -0.12845472461E+03  0.13068146552E+03  0.00000000000E+00 0.  1.
         14    1    3    3    0    0 -0.79104229655E+02  0.79091848794E+02 -0.23832478392E+03  0.26327115741E+03  0.00000000000E+00 0. -1.
          5    1    4    4  501    0  0.49728943988E+01  0.22553180883E+02  0.39052718161E+02  0.45613380081E+02  0.47000000000E+01 0.  1.
         -5    1    4    4    0  501  0.19008287909E+03 -0.11442811566E+03  0.16688828868E+03  0.27766722075E+03  0.47000000000E+01 0.  1.
          1    1    1    2  502    0 -0.64485747133E+02  0.19382136075E+02  0.10311499820E+04  0.10333461976E+04  0.00000000000E+00 0. -1.
          1    1    1    2  503    0 -0.20427169011E+03 -0.12197420173E+03 -0.15932760339E+04  0.16109416964E+04  0.00000000000E+00 0. -1.
<mgrwt>
<rscale>  0 0.11538825E+03</rscale>
<asrwt>0</asrwt>
<pdfrwt beam="1">  1        2 0.20385539E+00 0.67335568E+02</pdfrwt>
<pdfrwt beam="2">  1        2 0.32930570E+00 0.19773277E+03</pdfrwt>
<totfact> 0.19032457E+01</totfact>
</mgrwt>
</event>
<event>
13    1  0.2101801E-008  0.2189182E+03  0.7546771E-02  0.1338264E+00
          2   -1    0    0  502    0  0.00000000000E+00  0.00000000000E+00  0.55958868001E+03  0.55958868001E+03  0.00000000000E+00 0. -1.
          2   -1    0    0  503    0 -0.00000000000E+00 -0.00000000000E+00 -0.19837863168E+04  0.19837863168E+04  0.00000000000E+00 0. -1.
         24    2    1    2    0    0 -0.42124876359E+03  0.35732674145E+03 -0.93139113793E+03  0.10858918231E+04  0.80862096381E+02 0.  0.
         25    2    1    2    0    0  0.46666333486E+03 -0.23480793564E+03 -0.16987769015E+03  0.56337281965E+03  0.12498427729E+03 0.  0.
         24    2    1    2    0    0 -0.26410042399E+03 -0.14432014068E+03 -0.77166635614E+02  0.32983320796E+03  0.11071548431E+03 0.  0.
        -11    1    3    3    0    0 -0.40118483825E+02  0.63692817416E+02 -0.15882459889E+03  0.17575983883E+03  0.00000000000E+00 0.  1.
         12    1    3    3    0    0 -0.38113027976E+03  0.29363392403E+03 -0.77256653904E+03  0.91013198425E+03  0.00000000000E+00 0. -1.
        -13    1    5    5    0    0 -0.14579674702E+03 -0.13855893345E+03 -0.35308736742E+02  0.20421061767E+03  0.00000000000E+00 0.  1.
         14    1    5    5    0    0 -0.11830367697E+03 -0.57612072347E+01 -0.41857898872E+02  0.12562259029E+03  0.00000000000E+00 0. -1.
          5    1    4    4  501    0  0.25155115632E+03 -0.80227558104E+02 -0.35955524788E+02  0.26651329252E+03  0.47000000000E+01 0.  1.
         -5    1    4    4    0  501  0.21511217854E+03 -0.15458037753E+03 -0.13392216536E+03  0.29685952713E+03  0.47000000000E+01 0.  1.
          1    1    1    2  502    0  0.21356357775E+03  0.48281648549E+02  0.83187536690E+02  0.23422358034E+03  0.00000000000E+00 0. -1.
          1    1    1    2  503    0  0.51222749671E+01 -0.26480313682E+02 -0.32894970978E+03  0.33005356577E+03  0.00000000000E+00 0. -1.
<mgrwt>
<rscale>  0 0.76840635E+02</rscale>
<asrwt>0</asrwt>
<pdfrwt beam="1">  1        2 0.82292454E-01 0.21891821E+03</pdfrwt>
<pdfrwt beam="2">  1        2 0.29173328E+00 0.26971183E+02</pdfrwt>
<totfact> 0.97186626E+01</totfact>
</mgrwt>
</event>
<event>
13    1  0.2101801E-008  0.9942072E+02  0.7546771E-02  0.1337767E+00
          2   -1    0    0  503    0  0.00000000000E+00  0.00000000000E+00  0.11435119062E+04  0.11435119062E+04  0.00000000000E+00 0. -1.
          2   -1    0    0  502    0 -0.00000000000E+00 -0.00000000000E+00 -0.11037364520E+04  0.11037364520E+04  0.00000000000E+00 0. -1.
         24    2    1    2    0    0 -0.78495994667E+02 -0.49162687929E+02 -0.40516370005E+03  0.42376892277E+03  0.82727776517E+02 0.  0.
         25    2    1    2    0    0 -0.39906858951E+02 -0.41389601330E+02  0.62897412499E+03  0.64384772771E+03  0.12500316029E+03 0.  0.
         24    2    1    2    0    0  0.32154268145E+02  0.99485764069E+01  0.11385875613E+03  0.14324814007E+03  0.80145755684E+02 0.  0.
        -11    1    5    5    0    0  0.12832142297E+02  0.56298567172E+01  0.12129282731E+03  0.12209958690E+03  0.00000000000E+00 0.  1.
         12    1    5    5    0    0  0.19322125848E+02  0.43187196898E+01 -0.74340711838E+01  0.21148553175E+02  0.00000000000E+00 0. -1.
        -13    1    3    3    0    0  0.67669858440E+01 -0.24343632685E+02 -0.17936424445E+03  0.18113513391E+03  0.00000000000E+00 0.  1.
         14    1    3    3    0    0 -0.85262980511E+02 -0.24819055244E+02 -0.22579945560E+03  0.24263378886E+03  0.00000000000E+00 0. -1.
          5    1    4    4  501    0 -0.72996361072E+02 -0.38817410940E+02  0.57024076253E+03  0.57622207296E+03  0.47000000000E+01 0.  1.
         -5    1    4    4    0  501  0.33089502121E+02 -0.25721903894E+01  0.58733362460E+02  0.67625654746E+02  0.47000000000E+01 0.  1.
          1    1    1    2  502    0  0.43101981877E+02  0.12178597583E+03 -0.65841105586E+03  0.67096551568E+03  0.00000000000E+00 0. -1.
          1    1    1    2  503    0  0.43146603596E+02 -0.41182262983E+02  0.36051732901E+03  0.36541805197E+03  0.00000000000E+00 0. -1.
<mgrwt>
<rscale>  0 0.77006607E+02</rscale>
<asrwt>0</asrwt>
<pdfrwt beam="1">  1        2 0.16816352E+00 0.59645689E+02</pdfrwt>
<pdfrwt beam="2">  1        2 0.16231418E+00 0.99420723E+02</pdfrwt>
<totfact> 0.10068426E+02</totfact>
</mgrwt>
</event>
<event>
13    1  0.2101801E-008  0.1110782E+03  0.7546771E-02  0.1316796E+00
          2   -1    0    0  502    0  0.00000000000E+00  0.00000000000E+00  0.21509291267E+04  0.21509291267E+04  0.00000000000E+00 0. -1.
          2   -1    0    0  503    0 -0.00000000000E+00 -0.00000000000E+00 -0.15236711716E+04  0.15236711716E+04  0.00000000000E+00 0. -1.
         24    2    1    2    0    0  0.45625992230E+02 -0.26231074066E+03 -0.32055529499E+03  0.42444460744E+03  0.80677579342E+02 0.  0.
         25    2    1    2    0    0 -0.18245158122E+02  0.97208787084E+02  0.13458038672E+04  0.13552107011E+04  0.12500224537E+03 0.  0.
         24    2    1    2    0    0 -0.62699166588E+02  0.63773837429E+01 -0.48445498799E+02  0.11315075281E+03  0.80524965033E+02 0.  0.
        -11    1    3    3    0    0  0.20972959494E+02 -0.87068039128E+02 -0.54273883235E+02  0.10472040331E+03  0.00000000000E+00 0.  1.
         12    1    3    3    0    0  0.24653032736E+02 -0.17524270153E+03 -0.26628141175E+03  0.31972420413E+03  0.00000000000E+00 0. -1.
        -11    1    5    5    0    0  0.43311596029E+01  0.17383922722E+02 -0.41089947479E+02  0.44825701295E+02  0.00000000000E+00 0.  1.
         12    1    5    5    0    0 -0.67030326191E+02 -0.11006538979E+02 -0.73555513195E+01  0.68325051517E+02  0.00000000000E+00 0. -1.
          5    1    4    4  501    0  0.40688849563E+02 -0.35569080274E+01  0.27577280287E+03  0.27882066436E+03  0.47000000000E+01 0.  1.
         -5    1    4    4    0  501 -0.58934007684E+02  0.10076569511E+03  0.10700310643E+04  0.10763900367E+04  0.47000000000E+01 0.  1.
          1    1    1    2  502    0 -0.42240563397E+02  0.48415768547E+02  0.71040316205E+03  0.71330288412E+03  0.00000000000E+00 0. -1.
          1    1    1    2  503    0  0.77558895877E+02  0.11030880128E+03 -0.10599482804E+04  0.10684913528E+04  0.00000000000E+00 0. -1.
<mgrwt>
<rscale>  0 0.84480893E+02</rscale>
<asrwt>0</asrwt>
<pdfrwt beam="1">  1        2 0.31631311E+00 0.64252252E+02</pdfrwt>
<pdfrwt beam="2">  1        2 0.22406929E+00 0.11107815E+03</pdfrwt>
<totfact> 0.19627751E+01</totfact>
</mgrwt>
</event>
<event>
13    1  0.2101801E-008  0.1026861E+03  0.7546771E-02  0.1409104E+00
          2   -1    0    0  503    0  0.00000000000E+00  0.00000000000E+00  0.46838161180E+03  0.46838161180E+03  0.00000000000E+00 0. -1.
          2   -1    0    0  502    0 -0.00000000000E+00 -0.00000000000E+00 -0.13914053351E+04  0.13914053351E+04  0.00000000000E+00 0. -1.
         24    2    1    2    0    0 -0.15392546860E+03 -0.30245789603E+03  0.19934695820E+02  0.35034510690E+03  0.84678645929E+02 0.  0.
         25    2    1    2    0    0 -0.18783950818E+02  0.42824892197E+03 -0.67356787683E+03  0.80812643079E+03  0.12499866986E+03 0.  0.
         24    2    1    2    0    0  0.16205890178E+03 -0.55396868684E+02 -0.17384585478E+03  0.25672569494E+03  0.79710730209E+02 0.  0.
        -11    1    3    3    0    0 -0.72073208487E+02 -0.13812305449E+03 -0.33045202062E+02  0.15926239651E+03  0.00000000000E+00 0.  1.
         12    1    3    3    0    0 -0.81852260112E+02 -0.16433484154E+03  0.52979897882E+02  0.19108271039E+03  0.00000000000E+00 0. -1.
        -13    1    5    5    0    0  0.17319498766E+02  0.10714502546E+02 -0.53417693248E+02  0.57168309003E+02  0.00000000000E+00 0.  1.
         14    1    5    5    0    0  0.14473940302E+03 -0.66111371230E+02 -0.12042816154E+03  0.19955738594E+03  0.00000000000E+00 0. -1.
          5    1    4    4  501    0 -0.60157632195E+02  0.36935270831E+03 -0.57191570338E+03  0.68348374203E+03  0.47000000000E+01 0.  1.
         -5    1    4    4    0  501  0.41373681377E+02  0.58896213660E+02 -0.10165217345E+03  0.12464268876E+03  0.47000000000E+01 0.  1.
          1    1    1    2  502    0 -0.85422627494E+01  0.30921006320E+02 -0.25373690467E+03  0.25575671188E+03  0.00000000000E+00 0. -1.
          1    1    1    2  503    0  0.19192780386E+02 -0.10131516358E+03  0.15819221720E+03  0.18883300234E+03  0.00000000000E+00 0. -1.
<mgrwt>
<rscale>  0 0.57394209E+02</rscale>
<asrwt>0</asrwt>
<pdfrwt beam="1">  1        2 0.68879648E-01 0.10268614E+03</pdfrwt>
<pdfrwt beam="2">  1        2 0.20461843E+00 0.32079259E+02</pdfrwt>
<totfact> 0.21860986E+02</totfact>
</mgrwt>
</event>
<event>
13    1  0.2101801E-008  0.1100398E+03  0.7546771E-02  0.1277746E+00
          2   -1    0    0  503    0  0.00000000000E+00  0.00000000000E+00  0.34117586835E+04  0.34117586835E+04  0.00000000000E+00 0. -1.
          2   -1    0    0  502    0 -0.00000000000E+00 -0.00000000000E+00 -0.80663746474E+03  0.80663746474E+03  0.00000000000E+00 0. -1.
         24    2    1    2    0    0  0.18242555400E+02  0.18791401654E+02 -0.74634622982E+02  0.11174280026E+03  0.78931735438E+02 0.  0.
         25    2    1    2    0    0 -0.41905235835E+02 -0.99684950336E+02  0.16471145964E+03  0.23334015719E+03  0.12499850362E+03 0.  0.
         24    2    1    2    0    0 -0.23945247009E+02  0.35935511757E+01  0.48116223803E+03  0.48839726900E+03  0.80177955811E+02 0.  0.
        -11    1    3    3    0    0  0.32846898155E+02  0.42401675689E+02 -0.59563169262E+02  0.80153552337E+02  0.00000000000E+00 0.  1.
         12    1    3    3    0    0 -0.14604342754E+02 -0.23610274035E+02 -0.15071453720E+02  0.31589247926E+02  0.00000000000E+00 0. -1.
        -13    1    5    5    0    0 -0.33931004706E+02  0.19924702830E+02  0.11149387778E+03  0.11823363162E+03  0.00000000000E+00 0.  1.
         14    1    5    5    0    0  0.99857576975E+01 -0.16331151655E+02  0.36966836024E+03  0.37016363738E+03  0.00000000000E+00 0. -1.
          5    1    4    4  501    0 -0.28463647365E+02  0.20530575078E+02  0.74110068816E+02  0.82134499659E+02  0.47000000000E+01 0. -1.
         -5    1    4    4    0  501 -0.13441588470E+02 -0.12021552541E+03  0.90601390826E+02  0.15120565754E+03  0.47000000000E+01 0. -1.
          1    1    1    2  502    0 -0.66508963705E+02  0.12799532674E+03 -0.66635741836E+03  0.68179062396E+03  0.00000000000E+00 0. -1.
          1    1    1    2  503    0  0.11411689115E+03 -0.50695329229E+02  0.27002395624E+04  0.27031252978E+04  0.00000000000E+00 0. -1.
<mgrwt>
<rscale>  0 0.10122247E+03</rscale>
<asrwt>0</asrwt>
<pdfrwt beam="1">  1        2 0.50172921E+00 0.93111696E+02</pdfrwt>
<pdfrwt beam="2">  1        2 0.11862316E+00 0.11003975E+03</pdfrwt>
<totfact> 0.10363524E+01</totfact>
</mgrwt>
</event>
<event>
13    1  0.2101801E-008  0.5797153E+02  0.7546771E-02  0.1440402E+00
          2   -1    0    0  502    0  0.00000000000E+00  0.00000000000E+00  0.11671963460E+04  0.11671963460E+04  0.00000000000E+00 0. -1.
          2   -1    0    0  503    0 -0.00000000000E+00 -0.00000000000E+00 -0.28755804771E+04  0.28755804771E+04  0.00000000000E+00 0. -1.
         24    2    1    2    0    0  0.56726600548E+02 -0.72140309648E+02 -0.24590209271E+03  0.27274591399E+03  0.74164431590E+02 0.  0.
         25    2    1    2    0    0 -0.80163803592E+01  0.10823491008E+03  0.30217561839E+03  0.34454678661E+03  0.12499330263E+03 0.  0.
         24    2    1    2    0    0  0.15176032801E+02  0.25624321574E+02 -0.18114051611E+03  0.20055834613E+03  0.80776517605E+02 0.  0.
        -13    1    5    5    0    0 -0.33359260854E+02  0.74945001685E+01 -0.76539561229E+02  0.83829065667E+02  0.00000000000E+00 0.  1.
         14    1    5    5    0    0  0.48535293655E+02  0.18129821406E+02 -0.10460095488E+03  0.11672928046E+03  0.00000000000E+00 0. -1.
        -13    1    3    3    0    0  0.23610739564E+02 -0.67334306678E+02 -0.21733255882E+03  0.22874618468E+03  0.00000000000E+00 0.  1.
         14    1    3    3    0    0  0.33115860984E+02 -0.48060029699E+01 -0.28569533886E+02  0.43999729314E+02  0.00000000000E+00 0. -1.
          5    1    4    4  501    0 -0.35617464890E+02 -0.59556534054E+01  0.27086149479E+02  0.45385274113E+02  0.47000000000E+01 0.  1.
         -5    1    4    4    0  501  0.27601084531E+02  0.11419056349E+03  0.27508946891E+03  0.29916151250E+03  0.47000000000E+01 0.  1.
          1    1    1    2  502    0 -0.44150906704E+02 -0.72334754999E+01  0.81974504878E+03  0.82096502406E+03  0.00000000000E+00 0. -1.
          1    1    1    2  503    0 -0.19735346285E+02 -0.54485446507E+02 -0.24032621895E+04  0.24039607524E+04  0.00000000000E+00 0. -1.
<mgrwt>
<rscale>  0 0.50927588E+02</rscale>
<asrwt>0</asrwt>
<pdfrwt beam="1">  1        2 0.17164653E+00 0.44739532E+02</pdfrwt>
<pdfrwt beam="2">  1        2 0.42287947E+00 0.57971532E+02</pdfrwt>
<totfact> 0.14188795E+01</totfact>
</mgrwt>
</event>
<event>
13    1  0.2101801E-008  0.9625628E+02  0.7546771E-02  0.1298184E+00
          2   -1    0    0  502    0  0.00000000000E+00  0.00000000000E+00  0.48740512725E+03  0.48740512725E+03  0.00000000000E+00 0. -1.
          2   -1    0    0  503    0 -0.00000000000E+00 -0.00000000000E+00 -0.14485071808E+04  0.14485071808E+04  0.00000000000E+00 0. -1.
         24    2    1    2    0    0 -0.30740984678E+02 -0.15563979507E+02 -0.16398759230E+03  0.18610003011E+03  0.80957057644E+02 0.  0.
         25    2    1    2    0    0  0.92841018035E+02 -0.25791624392E+01 -0.33796594715E+02  0.15935336386E+03  0.12500071220E+03 0.  0.
         24    2    1    2    0    0  0.38236595200E+01 -0.25748711357E+01 -0.61736360233E+02  0.10285833363E+03  0.82141392058E+02 0.  0.
        -11    1    5    5    0    0 -0.15314595790E+02  0.10667425547E+02 -0.74163111079E+02  0.76475472257E+02  0.00000000000E+00 0.  1.
         12    1    5    5    0    0  0.19138255310E+02 -0.13242296682E+02  0.12426750846E+02  0.26382861375E+02  0.00000000000E+00 0. -1.
        -11    1    3    3    0    0  0.29416791675E+01 -0.27935403501E+02 -0.13081669663E+02  0.30986615276E+02  0.00000000000E+00 0.  1.
         12    1    3    3    0    0 -0.33682663845E+02  0.12371423994E+02 -0.15090592263E+03  0.15511341483E+03  0.00000000000E+00 0. -1.
          5    1    4    4  501    0  0.11734303143E+02 -0.56626226501E+02 -0.15760682318E+02  0.60122479200E+02  0.47000000000E+01 0.  1.
         -5    1    4    4    0  501  0.81106714892E+02  0.54047064062E+02 -0.18035912397E+02  0.99230884659E+02  0.47000000000E+01 0.  1.
          1    1    1    2  502    0 -0.35841028799E+02 -0.90994692304E+02  0.38380312660E+03  0.39606748586E+03  0.00000000000E+00 0. -1.
          1    1    1    2  503    0 -0.30082664079E+02  0.11171270539E+03 -0.10853846329E+04  0.10915330945E+04  0.00000000000E+00 0. -1.
<mgrwt>
<rscale>  0 0.91955621E+02</rscale>
<asrwt>0</asrwt>
<pdfrwt beam="1">  1        2 0.71677225E-01 0.87847113E+02</pdfrwt>
<pdfrwt beam="2">  1        2 0.21301576E+00 0.96256278E+02</pdfrwt>
<totfact> 0.18086592E+02</totfact>
</mgrwt>
</event>
<event>
13    1  0.2101801E-008  0.1221911E+03  0.7546771E-02  0.1331187E+00
          2   -1    0    0  503    0  0.00000000000E+00  0.00000000000E+00  0.60098725731E+03  0.60098725731E+03  0.00000000000E+00 0. -1.
          2   -1    0    0  502    0 -0.00000000000E+00 -0.00000000000E+00 -0.19147144103E+04  0.19147144103E+04  0.00000000000E+00 0. -1.
         24    2    1    2    0    0  0.65169985201E+02 -0.30716641313E+02 -0.58160872131E+03  0.59117743922E+03  0.77662223195E+02 0.  0.
         25    2    1    2    0    0 -0.26747518745E+03  0.60894508275E+02  0.25914224915E+03  0.39753029543E+03  0.12499805377E+03 0.  0.
         24    2    1    2    0    0  0.80032034759E+02 -0.13462133470E+03 -0.26885394474E+03  0.32195914073E+03  0.82747896392E+02 0.  0.
        -13    1    5    5    0    0  0.72958490581E+02 -0.47664385736E+02 -0.16255060617E+03  0.18443843033E+03  0.00000000000E+00 0.  1.
         14    1    5    5    0    0  0.70735441787E+01 -0.86956948960E+02 -0.10630333856E+03  0.13752071040E+03  0.00000000000E+00 0. -1.
        -13    1    3    3    0    0  0.29530895035E+01  0.23069057393E+02 -0.10733460812E+03  0.10982540802E+03  0.00000000000E+00 0.  1.
         14    1    3    3    0    0  0.62216895698E+02 -0.53785698706E+02 -0.47427411319E+03  0.48135203119E+03  0.00000000000E+00 0. -1.
          5    1    4    4  501    0 -0.97397617011E+02 -0.16451617656E+02  0.33217476466E+02  0.10431894490E+03  0.47000000000E+01 0. -1.
         -5    1    4    4    0  501 -0.17007757044E+03  0.77346125931E+02  0.22592477269E+03  0.29321135053E+03  0.47000000000E+01 0. -1.
          1    1    1    2  502    0  0.71845283444E+02  0.94482261931E+02 -0.95727592077E+03  0.96460656802E+03  0.00000000000E+00 0. -1.
          1    1    1    2  503    0  0.50427884050E+02  0.99612058030E+01  0.23486918465E+03  0.24042822423E+03  0.00000000000E+00 0. -1.
<mgrwt>
<rscale>  0 0.79252155E+02</rscale>
<asrwt>0</asrwt>
<pdfrwt beam="1">  1        2 0.88380479E-01 0.51402306E+02</pdfrwt>
<pdfrwt beam="2">  1        2 0.28157565E+00 0.12219109E+03</pdfrwt>
<totfact> 0.84384639E+01</totfact>
</mgrwt>
</event>
<event>
13    1  0.2101801E-008  0.1306132E+03  0.7546771E-02  0.1275011E+00
         -1   -1    0    0    0  501  0.00000000000E+00  0.00000000000E+00  0.66528237467E+03  0.66528237467E+03  0.00000000000E+00 0.  1.
         -1   -1    0    0    0  502 -0.00000000000E+00 -0.00000000000E+00 -0.29454697717E+04  0.29454697717E+04  0.00000000000E+00 0.  1.
         24    2    1    2    0    0  0.13175896975E+02  0.99304349457E+02 -0.17049752392E+04  0.17099195293E+04  0.82760330744E+02 0.  0.
         25    2    1    2    0    0 -0.22343147804E+03 -0.17383910830E+03 -0.31989259903E+03  0.44508362363E+03  0.12500598451E+03 0.  0.
         24    2    1    2    0    0  0.46956501807E+02  0.20452936002E+02  0.60686202578E+02  0.11267179240E+03  0.79930482087E+02 0.  0.
        -13    1    5    5    0    0  0.25050121951E+02  0.49448854897E+02  0.50360712761E+02  0.74892584747E+02  0.00000000000E+00 0.  1.
         14    1    5    5    0    0  0.21906379857E+02 -0.28995918896E+02  0.10325489817E+02  0.37779207654E+02  0.00000000000E+00 0. -1.
        -13    1    3    3    0    0 -0.60356400531E+01  0.10833193241E+03 -0.14603319627E+04  0.14643570868E+04  0.00000000000E+00 0.  1.
         14    1    3    3    0    0  0.19211537028E+02 -0.90275829494E+01 -0.24464327654E+03  0.24556244250E+03  0.00000000000E+00 0. -1.
          5    1    4    4  503    0 -0.74986854463E+01  0.64300319738E+01  0.76194203140E+01  0.13331210017E+02  0.47000000000E+01 0. -1.
         -5    1    4    4    0  503 -0.21593279259E+03 -0.18026914027E+03 -0.32751201934E+03  0.43175241362E+03  0.47000000000E+01 0. -1.
         -2    1    1    2    0  501  0.90037806077E+02  0.87506307297E+02  0.50385926924E+03  0.51926710231E+03  0.00000000000E+00 0.  1.
         -2    1    1    2    0  502  0.73261273177E+02 -0.33424484459E+02 -0.81986503059E+03  0.82381009868E+03  0.00000000000E+00 0.  1.
<mgrwt>
<rscale>  0 0.10255602E+03</rscale>
<asrwt>0</asrwt>
<pdfrwt beam="1">  1       -1 0.97835642E-01 0.13061320E+03</pdfrwt>
<pdfrwt beam="2">  1       -1 0.43315733E+00 0.80525836E+02</pdfrwt>
<totfact> 0.59923950E-02</totfact>
</mgrwt>
</event>
<event>
13    1  0.2101801E-008  0.7252976E+02  0.7546771E-02  0.1373097E+00
          2   -1    0    0  503    0  0.00000000000E+00  0.00000000000E+00  0.20261219095E+04  0.20261219095E+04  0.00000000000E+00 0. -1.
          2   -1    0    0  502    0 -0.00000000000E+00 -0.00000000000E+00 -0.23692977429E+04  0.23692977429E+04  0.00000000000E+00 0. -1.
         24    2    1    2    0    0  0.20711416767E+02 -0.50086516687E+02 -0.11278515334E+04  0.11327805247E+04  0.90581531370E+02 0.  0.
         25    2    1    2    0    0 -0.10591220100E+03  0.71459488348E+02  0.88740328178E+02  0.19955781378E+03  0.12499848958E+03 0.  0.
         24    2    1    2    0    0 -0.62643856430E+02 -0.63384667357E+02  0.12471748975E+03  0.17263341953E+03  0.79410178731E+02 0.  0.
        -11    1    5    5    0    0 -0.45195484503E+02 -0.55337123036E+02  0.32601315929E+02  0.78534545301E+02  0.00000000000E+00 0.  1.
         12    1    5    5    0    0 -0.17448371927E+02 -0.80475443212E+01  0.92116173821E+02  0.94098874233E+02  0.00000000000E+00 0. -1.
        -13    1    3    3    0    0 -0.23814129199E+02 -0.22877338702E+02 -0.15251191373E+03  0.15604604835E+03  0.00000000000E+00 0.  1.
         14    1    3    3    0    0  0.44525545967E+02 -0.27209177985E+02 -0.97533961965E+03  0.97673447634E+03  0.00000000000E+00 0. -1.
          5    1    4    4  501    0 -0.22995270495E+02  0.89323879779E+02  0.33583494801E+02  0.98272473699E+02  0.47000000000E+01 0. -1.
         -5    1    4    4    0  501 -0.82916930508E+02 -0.17864391431E+02  0.55156833377E+02  0.10128534008E+03  0.47000000000E+01 0. -1.
          1    1    1    2  502    0  0.50287756020E+02 -0.33870389034E+02 -0.11566135936E+04  0.11582016519E+04  0.00000000000E+00 0. -1.
          1    1    1    2  503    0  0.97556884646E+02  0.75882084730E+02  0.17278314756E+04  0.17322462425E+04  0.00000000000E+00 0. -1.
<mgrwt>
<rscale>  0 0.66313783E+02</rscale>
<asrwt>0</asrwt>
<pdfrwt beam="1">  1        2 0.29795910E+00 0.72529756E+02</pdfrwt>
<pdfrwt beam="2">  1        2 0.34842614E+00 0.60630534E+02</pdfrwt>
<totfact> 0.92705076E+00</totfact>
</mgrwt>
</event>
<event>
13    1  0.2101801E-008  0.5758105E+02  0.7546771E-02  0.1510552E+00
          2   -1    0    0  503    0  0.00000000000E+00  0.00000000000E+00  0.15342044890E+04  0.15342044890E+04  0.00000000000E+00 0. -1.
         -3   -1    0    0    0  501 -0.00000000000E+00 -0.00000000000E+00 -0.16409200052E+03  0.16409200052E+03  0.00000000000E+00 0.  1.
         24    2    1    2    0    0  0.41009196251E+02 -0.90816544279E+02 -0.34440622470E+02  0.13189193581E+03  0.79245992727E+02 0.  0.
         25    2    1    2    0    0 -0.72764482239E+02  0.76897488095E+02  0.74548432065E+03  0.76326896579E+03  0.12499899301E+03 0.  0.
         24    2    1    2    0    0  0.60874558819E+02 -0.41296641863E+01  0.15362402362E+03  0.18261690357E+03  0.77626199184E+02 0.  0.
        -11    1    5    5    0    0  0.51280709051E+02  0.14017408886E+02  0.15311729788E+03  0.16208363824E+03  0.00000000000E+00 0.  1.
         12    1    5    5    0    0  0.95938497687E+01 -0.18147073072E+02  0.50672573721E+00  0.20533265338E+02  0.00000000000E+00 0. -1.
        -13    1    3    3    0    0  0.16397571172E+01  0.71751441203E+01  0.13916009772E+02  0.15742516461E+02  0.00000000000E+00 0.  1.
         14    1    3    3    0    0  0.39369439134E+02 -0.97991688399E+02 -0.48356632242E+02  0.11614941935E+03  0.00000000000E+00 0. -1.
          5    1    4    4  502    0 -0.57255119984E+02  0.11046955107E+03  0.51831197734E+03  0.53305822040E+03  0.47000000000E+01 0. -1.
         -5    1    4    4    0  502 -0.15509362255E+02 -0.33572062974E+02  0.22717234331E+03  0.23021074539E+03  0.47000000000E+01 0. -1.
          1    1    1    2  503    0  0.27075182842E+02  0.38614031576E+01  0.54795826620E+03  0.54864035347E+03  0.00000000000E+00 0. -1.
         -4    1    1    2    0  501 -0.56194455673E+02  0.14187317213E+02 -0.42513499483E+02  0.71878330924E+02  0.00000000000E+00 0.  1.
<mgrwt>
<rscale>  0 0.39683660E+02</rscale>
<asrwt>0</asrwt>
<pdfrwt beam="1">  1        2 0.22561830E+00 0.27349149E+02</pdfrwt>
<pdfrwt beam="2">  1       -3 0.24131177E-01 0.57581054E+02</pdfrwt>
<totfact> 0.15353838E+02</totfact>
</mgrwt>
</event>
<event>
13    1  0.2101801E-008  0.7844489E+02  0.7546771E-02  0.1378268E+00
          2   -1    0    0  502    0  0.00000000000E+00  0.00000000000E+00  0.25628066283E+03  0.25628066283E+03  0.00000000000E+00 0. -1.
          2   -1    0    0  503    0 -0.00000000000E+00 -0.00000000000E+00 -0.24146406256E+04  0.24146406256E+04  0.00000000000E+00 0. -1.
         24    2    1    2    0    0 -0.45073066026E+02  0.10275313055E+03 -0.25529315529E+03  0.29016867931E+03  0.80208978280E+02 0.  0.
         25    2    1    2    0    0  0.89989243351E+02  0.17547167906E+03 -0.12664483898E+04  0.12877906608E+04  0.12499955264E+03 0.  0.
         24    2    1    2    0    0  0.82047633141E+02 -0.28296088942E+03 -0.12411469474E+03  0.33036218795E+03  0.83282883819E+02 0.  0.
        -13    1    5    5    0    0  0.77081177624E+02 -0.27990507819E+03 -0.10236194376E+03  0.30784140116E+03  0.00000000000E+00 0.  1.
         14    1    5    5    0    0  0.49664555163E+01 -0.30558112280E+01 -0.21752750977E+02  0.22520786792E+02  0.00000000000E+00 0. -1.
        -13    1    3    3    0    0 -0.50983780417E+02  0.32343188728E+02 -0.16376396982E+03  0.17453958157E+03  0.00000000000E+00 0.  1.
         14    1    3    3    0    0  0.59107143909E+01  0.70409941824E+02 -0.91529185465E+02  0.11562909774E+03  0.00000000000E+00 0. -1.
          5    1    4    4  501    0  0.36553818309E+02  0.95609187422E+02 -0.98579467030E+03  0.99110570594E+03  0.47000000000E+01 0. -1.
         -5    1    4    4    0  501  0.53435425041E+02  0.79862491639E+02 -0.28065371946E+03  0.29668495490E+03  0.47000000000E+01 0. -1.
          1    1    1    2  502    0 -0.51755176825E+02 -0.14429307738E+02  0.11678043505E+03  0.12854755253E+03  0.00000000000E+00 0. -1.
          1    1    1    2  503    0 -0.75208633640E+02  0.19165387541E+02 -0.62928415800E+03  0.63405220775E+03  0.00000000000E+00 0. -1.
<mgrwt>
<rscale>  0 0.64921214E+02</rscale>
<asrwt>0</asrwt>
<pdfrwt beam="1">  1        2 0.37688335E-01 0.53728980E+02</pdfrwt>
<pdfrwt beam="2">  1        2 0.35509418E+00 0.78444892E+02</pdfrwt>
<totfact> 0.12277329E+02</totfact>
</mgrwt>
</event>
<event>
13    1  0.2101801E-008  0.7822508E+02  0.7546771E-02  0.1335551E+00
          2   -1    0    0  503    0  0.00000000000E+00  0.00000000000E+00  0.16912855613E+04  0.16912855613E+04  0.00000000000E+00 0. -1.
          2   -1    0    0  502    0 -0.00000000000E+00 -0.00000000000E+00 -0.12710955889E+04  0.12710955889E+04  0.00000000000E+00 0. -1.
         24    2    1    2    0    0 -0.82355676902E+02 -0.35797177363E+03  0.78613795959E+02  0.38455126545E+03  0.82300052275E+02 0.  0.
         25    2    1    2    0    0 -0.41661525946E+02  0.91969754245E+02  0.60669454315E+03  0.62761349510E+03  0.12500524832E+03 0.  0.
         24    2    1    2    0    0  0.10020854698E+03  0.19182013319E+03 -0.19665387303E+03  0.30299411420E+03  0.79347155474E+02 0.  0.
        -13    1    5    5    0    0  0.88827716063E+02  0.10213181830E+03 -0.14708978139E+03  0.19989165875E+03  0.00000000000E+00 0.  1.
         14    1    5    5    0    0  0.11380830912E+02  0.89688314891E+02 -0.49564091644E+02  0.10310245545E+03  0.00000000000E+00 0. -1.
        -13    1    3    3    0    0 -0.25768209472E+02 -0.65587279467E+02 -0.15639027358E+02  0.72182207115E+02  0.00000000000E+00 0.  1.
         14    1    3    3    0    0 -0.56587467429E+02 -0.29238449417E+03  0.94252823318E+02  0.31236905833E+03  0.00000000000E+00 0. -1.
          5    1    4    4  501    0  0.36028900903E+02  0.67722008296E+02  0.24164257034E+03  0.25356966284E+03  0.47000000000E+01 0. -1.
         -5    1    4    4    0  501 -0.77690426849E+02  0.24247745949E+02  0.36505197281E+03  0.37404383227E+03  0.47000000000E+01 0. -1.
          1    1    1    2  502    0 -0.52604641378E+02  0.56618464032E+02 -0.85414749951E+03  0.85763678191E+03  0.00000000000E+00 0. -1.
          1    1    1    2  503    0  0.76413297250E+02  0.17563422170E+02  0.78568300587E+03  0.78958549348E+03  0.00000000000E+00 0. -1.
<mgrwt>
<rscale>  0 0.77753384E+02</rscale>
<asrwt>0</asrwt>
<pdfrwt beam="1">  1        2 0.24871847E+00 0.78225080E+02</pdfrwt>
<pdfrwt beam="2">  1        2 0.18692582E+00 0.77284531E+02</pdfrwt>
<totfact> 0.43687622E+01</totfact>
</mgrwt>
</event>
<event>
13    1  0.2101801E-008  0.4257636E+02  0.7546771E-02  0.1596452E+00
         -1   -1    0    0    0  501 -0.00000000000E+00  0.00000000000E+00  0.10727844804E+03  0.10727844804E+03  0.00000000000E+00 0.  1.
          2   -1    0    0  503    0  0.00000000000E+00 -0.00000000000E+00 -0.42022266799E+04  0.42022266799E+04  0.00000000000E+00 0. -1.
         24    2    1    2    0    0 -0.16254202613E+03  0.10693818038E+03 -0.14636389742E+03  0.25663624578E+03  0.81142390283E+02 0.  0.
         25    2    1    2    0    0 -0.11471124075E+03  0.24144491823E+01 -0.12683836559E+04  0.12796816858E+04  0.12499447932E+03 0.  0.
         24    2    1    2    0    0  0.22162567119E+03 -0.11388622503E+03 -0.51770812790E+03  0.58012314862E+03  0.80206929173E+02 0.  0.
        -11    1    5    5    0    0  0.18225619744E+03 -0.72838751798E+02 -0.45463885289E+03  0.49519621548E+03  0.00000000000E+00 0.  1.
         12    1    5    5    0    0  0.39369473746E+02 -0.41047473233E+02 -0.63069275013E+02  0.84926933140E+02  0.00000000000E+00 0. -1.
        -13    1    3    3    0    0 -0.10855400247E+03  0.42766009491E+02 -0.44934302801E+02  0.12502797523E+03  0.00000000000E+00 0.  1.
         14    1    3    3    0    0 -0.53988023653E+02  0.64172170885E+02 -0.10142959461E+03  0.13160827055E+03  0.00000000000E+00 0. -1.
          5    1    4    4  502    0 -0.39751753385E+02 -0.55038801674E+02 -0.35891069685E+03  0.36530596751E+03  0.47000000000E+01 0. -1.
         -5    1    4    4    0  502 -0.74959487367E+02  0.57453250857E+02 -0.90947295910E+03  0.91437571825E+03  0.47000000000E+01 0. -1.
          1    1    1    2  503    0  0.38744089652E+02  0.17598875692E+02 -0.21700126628E+04  0.21704298610E+04  0.00000000000E+00 0. -1.
         -2    1    1    2    0  501  0.16883506037E+02 -0.13065280220E+02  0.75201121915E+01  0.22634186769E+02  0.00000000000E+00 0.  1.
<mgrwt>
<rscale>  0 0.30148588E+02</rscale>
<asrwt>0</asrwt>
<pdfrwt beam="2">  1        2 0.61797460E+00 0.42576363E+02</pdfrwt>
<pdfrwt beam="1">  1       -1 0.15776240E-01 0.21348403E+02</pdfrwt>
<totfact> 0.19271778E+01</totfact>
</mgrwt>
</event>
<event>
13    1  0.2101801E-008  0.1448280E+03  0.7546771E-02  0.1399431E+00
          2   -1    0    0  502    0  0.00000000000E+00  0.00000000000E+00  0.84964434629E+03  0.84964434629E+03  0.00000000000E+00 0. -1.
          2   -1    0    0  503    0 -0.00000000000E+00 -0.00000000000E+00 -0.24755198921E+04  0.24755198921E+04  0.00000000000E+00 0. -1.
         24    2    1    2    0    0 -0.92930190292E+02 -0.56943334077E+02 -0.66235500898E+03  0.67604216318E+03  0.80251385792E+02 0.  0.
         25    2    1    2    0    0  0.42861974296E+02 -0.17091591058E+03  0.25883469313E+03  0.33714849753E+03  0.12499725472E+03 0.  0.
         24    2    1    2    0    0  0.19606462710E+02  0.66237820199E+01  0.44461495782E+03  0.45076808755E+03  0.71281976470E+02 0.  0.
        -11    1    5    5    0    0 -0.11700303709E+02  0.30940939115E+02  0.15807667642E+03  0.16150069489E+03  0.00000000000E+00 0.  1.
         12    1    5    5    0    0  0.31306766419E+02 -0.24317157095E+02  0.28653828139E+03  0.28926739266E+03  0.00000000000E+00 0. -1.
        -13    1    3    3    0    0 -0.24383471394E+02 -0.54479532161E+02 -0.20295165373E+03  0.21154655954E+03  0.00000000000E+00 0.  1.
         14    1    3    3    0    0 -0.68546718898E+02 -0.24638019156E+01 -0.45940335524E+03  0.46449560364E+03  0.00000000000E+00 0. -1.
          5    1    4    4  501    0  0.88122767372E+01 -0.59790412255E+02  0.86341072865E+01  0.61230608584E+02  0.47000000000E+01 0. -1.
         -5    1    4    4    0  501  0.34049697559E+02 -0.11112549833E+03  0.25020058584E+03  0.27591788894E+03  0.47000000000E+01 0. -1.
          1    1    1    2  502    0  0.33442185997E+01  0.24314781741E+02  0.89867118910E+02  0.93158421360E+02  0.00000000000E+00 0. -1.
          1    1    1    2  503    0  0.27117534687E+02  0.19692068090E+03 -0.17568373067E+04  0.17680470688E+04  0.00000000000E+00 0. -1.
<mgrwt>
<rscale>  0 0.59620575E+02</rscale>
<asrwt>0</asrwt>
<pdfrwt beam="1">  1        2 0.12494770E+00 0.24543684E+02</pdfrwt>
<pdfrwt beam="2">  1        2 0.36404703E+00 0.14482801E+03</pdfrwt>
<totfact> 0.30524166E+01</totfact>
</mgrwt>
</event>
<event>
13    1  0.2101801E-008  0.4561946E+02  0.7546771E-02  0.1543128E+00
          2   -1    0    0  503    0  0.00000000000E+00  0.00000000000E+00  0.26190511244E+04  0.26190511244E+04  0.00000000000E+00 0. -1.
         -3   -1    0    0    0  501 -0.00000000000E+00 -0.00000000000E+00 -0.14222529750E+04  0.14222529750E+04  0.00000000000E+00 0.  1.
         24    2    1    2    0    0  0.87475075737E+03 -0.14723378228E+03  0.36397479772E+03  0.96424406177E+03  0.10208958381E+03 0.  0.
         25    2    1    2    0    0 -0.46458598129E+03  0.28332004076E+03  0.14432028342E+04  0.15474398019E+04  0.12500056164E+03 0.  0.
         24    2    1    2    0    0 -0.34824616583E+03 -0.10293676027E+03  0.33550634811E+02  0.37340905630E+03  0.80232846156E+02 0.  0.
        -13    1    3    3    0    0  0.21476004661E+03 -0.16313944827E+02  0.46896528699E+02  0.22042528625E+03  0.00000000000E+00 0.  1.
         14    1    3    3    0    0  0.65999071076E+03 -0.13091983746E+03  0.31707826903E+03  0.74381877552E+03  0.00000000000E+00 0. -1.
        -13    1    5    5    0    0 -0.17707920699E+03 -0.83341460627E+02 -0.91026675650E+01  0.19592269691E+03  0.00000000000E+00 0.  1.
         14    1    5    5    0    0 -0.17116695884E+03 -0.19595299638E+02  0.42653302376E+02  0.17748635939E+03  0.00000000000E+00 0. -1.
          5    1    4    4  502    0 -0.35540552617E+03  0.19711888048E+03  0.91502371162E+03  0.10012289568E+04  0.47000000000E+01 0.  1.
         -5    1    4    4    0  502 -0.10918045512E+03  0.86201160282E+02  0.52817912259E+03  0.54621084514E+03  0.47000000000E+01 0.  1.
          1    1    1    2  503    0 -0.17864035208E+02 -0.21324895978E+02  0.25480510592E+03  0.25631917007E+03  0.00000000000E+00 0. -1.
         -4    1    1    2    0  501 -0.44054575040E+02 -0.11824602232E+02 -0.89873522329E+03  0.89989200929E+03  0.00000000000E+00 0.  1.
<mgrwt>
<rscale>  0 0.35624008E+02</rscale>
<asrwt>0</asrwt>
<pdfrwt beam="1">  1        2 0.38515458E+00 0.27818608E+02</pdfrwt>
<pdfrwt beam="2">  1       -3 0.20915485E+00 0.45619463E+02</pdfrwt>
<totfact> 0.50650225E-01</totfact>
</mgrwt>
</event>
<event>
13    1  0.2101801E-008  0.1759576E+03  0.7546771E-02  0.1303581E+00
          2   -1    0    0  502    0  0.00000000000E+00  0.00000000000E+00  0.32943455413E+04  0.32943455413E+04  0.00000000000E+00 0. -1.
          2   -1    0    0  503    0 -0.00000000000E+00 -0.00000000000E+00 -0.90258891067E+03  0.90258891067E+03  0.00000000000E+00 0. -1.
         24    2    1    2    0    0  0.24338094308E+03  0.29046396127E+03  0.17706319634E+03  0.42621172485E+03  0.81862461809E+02 0.  0.
         25    2    1    2    0    0 -0.15768586883E+03  0.28375534861E+02  0.18696779754E+04  0.18806887278E+04  0.12499741848E+03 0.  0.
         24    2    1    2    0    0  0.39587930618E+02  0.23213269478E+02 -0.25863526699E+02  0.97216062085E+02  0.81706674045E+02 0.  0.
        -13    1    5    5    0    0 -0.16146002946E+02  0.32483214616E+02 -0.16868283345E+02  0.40004895025E+02  0.00000000000E+00 0.  1.
         14    1    5    5    0    0  0.55733933564E+02 -0.92699451382E+01 -0.89952433535E+01  0.57211167060E+02  0.00000000000E+00 0. -1.
        -13    1    3    3    0    0  0.89300969856E+02  0.10828883389E+03  0.11011692061E+03  0.17840087154E+03  0.00000000000E+00 0.  1.
         14    1    3    3    0    0  0.15407997323E+03  0.18217512738E+03  0.66946275729E+02  0.24781085331E+03  0.00000000000E+00 0. -1.
          5    1    4    4  501    0 -0.16836296577E+02  0.36071317926E+02  0.88937184026E+03  0.89027465487E+03  0.47000000000E+01 0. -1.
         -5    1    4    4    0  501 -0.14084957225E+03 -0.76957830651E+01  0.98030613519E+03  0.99041407289E+03  0.47000000000E+01 0. -1.
          1    1    1    2  502    0  0.36000952841E+02 -0.28193573941E+02  0.10375285207E+04  0.10385356890E+04  0.00000000000E+00 0. -1.
          1    1    1    2  503    0 -0.16128395772E+03 -0.31385919166E+03 -0.66664953517E+03  0.75428224820E+03  0.00000000000E+00 0. -1.
<mgrwt>
<rscale>  0 0.89699428E+02</rscale>
<asrwt>0</asrwt>
<pdfrwt beam="1">  1        2 0.48446258E+00 0.45726865E+02</pdfrwt>
<pdfrwt beam="2">  1        2 0.13273366E+00 0.17595755E+03</pdfrwt>
<totfact> 0.11715670E+01</totfact>
</mgrwt>
</event>
<event>
13    1  0.2101801E-008  0.6058863E+02  0.7546771E-02  0.1480479E+00
          2   -1    0    0  503    0  0.00000000000E+00  0.00000000000E+00  0.11650925507E+04  0.11650925507E+04  0.00000000000E+00 0. -1.
          2   -1    0    0  502    0 -0.00000000000E+00 -0.00000000000E+00 -0.22942935283E+04  0.22942935283E+04  0.00000000000E+00 0. -1.
         24    2    1    2    0    0  0.11127355749E+03 -0.63295875685E+02 -0.20022525216E+03  0.25065897946E+03  0.79696925316E+02 0.  0.
         25    2    1    2    0    0 -0.86795869497E+02  0.10441277239E+03  0.21518647398E+03  0.28348723494E+03  0.12499697513E+03 0.  0.
         24    2    1    2    0    0  0.14220313026E+02 -0.21151511264E+02 -0.20391552775E+03  0.22085908613E+03  0.80917178237E+02 0.  0.
        -11    1    5    5    0    0 -0.16402391751E+01  0.23256736835E+02 -0.13716431888E+03  0.13913165192E+03  0.00000000000E+00 0.  1.
         12    1    5    5    0    0  0.15860552201E+02 -0.44408248099E+02 -0.66751208872E+02  0.81727434202E+02  0.00000000000E+00 0. -1.
        -11    1    3    3    0    0  0.96804973682E+02 -0.81169601354E+02 -0.15533591142E+03  0.20022225773E+03  0.00000000000E+00 0.  1.
         12    1    3    3    0    0  0.14468583811E+02  0.17873725669E+02 -0.44889340733E+02  0.50436721724E+02  0.00000000000E+00 0. -1.
          5    1    4    4  501    0 -0.47221276845E+02  0.64241023932E+02  0.21230129731E+03  0.22682744318E+03  0.47000000000E+01 0. -1.
         -5    1    4    4    0  501 -0.39574592652E+02  0.40171748461E+02  0.28851766759E+01  0.56659791761E+02  0.47000000000E+01 0. -1.
          1    1    1    2  502    0 -0.32289414366E+02 -0.51316272384E+02 -0.18215189667E+04  0.18225277260E+04  0.00000000000E+00 0. -1.
          1    1    1    2  503    0 -0.64085866552E+01  0.31350886939E+02  0.88127229500E+03  0.88185305240E+03  0.00000000000E+00 0. -1.
<mgrwt>
<rscale>  0 0.44031658E+02</rscale>
<asrwt>0</asrwt>
<pdfrwt beam="1">  1        2 0.17133714E+00 0.31999189E+02</pdfrwt>
<pdfrwt beam="2">  1        2 0.33739610E+00 0.60588626E+02</pdfrwt>
<totfact> 0.27854269E+01</totfact>
</mgrwt>
</event>
<event>
13    1  0.2101801E-008  0.4797701E+02  0.7546771E-02  0.1465178E+00
          2   -1    0    0  503    0  0.00000000000E+00  0.00000000000E+00  0.14851676084E+04  0.14851676084E+04  0.00000000000E+00 0. -1.
         -1   -1    0    0    0  501 -0.00000000000E+00 -0.00000000000E+00 -0.27227427968E+03  0.27227427968E+03  0.00000000000E+00 0.  1.
         24    2    1    2    0    0 -0.12073319909E+03  0.73896794834E+02  0.44075315608E+02  0.16824722679E+03  0.79544039543E+02 0.  0.
         25    2    1    2    0    0  0.10343644322E+03 -0.16683987283E+03  0.55685160414E+03  0.60352654238E+03  0.12500374940E+03 0.  0.
         24    2    1    2    0    0  0.40143257640E+02  0.11384825413E+03  0.15812815125E+03  0.21319736672E+03  0.76653107306E+02 0.  0.
        -11    1    3    3    0    0 -0.58017875459E+02  0.53358878899E+02 -0.14336021112E+02  0.80117197476E+02  0.00000000000E+00 0.  1.
         12    1    3    3    0    0 -0.62715323627E+02  0.20537915935E+02  0.58411336721E+02  0.88130029310E+02  0.00000000000E+00 0. -1.
        -11    1    5    5    0    0  0.24497309631E+02  0.76757482044E+02  0.15259883067E+03  0.17256370520E+03  0.00000000000E+00 0.  1.
         12    1    5    5    0    0  0.15645948009E+02  0.37090772083E+02  0.55293205706E+01  0.40633661523E+02  0.00000000000E+00 0. -1.
          5    1    4    4  502    0  0.10993018255E+03 -0.14146928267E+03  0.33359197929E+03  0.37868707613E+03  0.47000000000E+01 0. -1.
         -5    1    4    4    0  502 -0.64937393382E+01 -0.25370590161E+02  0.22325962485E+03  0.22483946625E+03  0.47000000000E+01 0. -1.
          1    1    1    2  503    0  0.21489483328E+02 -0.39619205348E+02  0.60866802779E+03  0.61033453726E+03  0.00000000000E+00 0. -1.
         -2    1    1    2    0  501 -0.44335985098E+02  0.18714029216E+02 -0.15482977011E+03  0.16213621488E+03  0.00000000000E+00 0.  1.
<mgrwt>
<rscale>  0 0.46501793E+02</rscale>
<asrwt>0</asrwt>
<pdfrwt beam="1">  1        2 0.21840700E+00 0.45071935E+02</pdfrwt>
<pdfrwt beam="2">  1       -1 0.40040336E-01 0.47977012E+02</pdfrwt>
<totfact> 0.12193796E+02</totfact>
</mgrwt>
</event>
<event>
13    1  0.2357601E-008  0.1766167E+03  0.7546771E-02  0.1268413E+00
          2   -1    0    0  503    0  0.00000000000E+00  0.00000000000E+00  0.21492381854E+04  0.21492381854E+04  0.00000000000E+00 0. -1.
         -1   -1    0    0    0  501 -0.00000000000E+00 -0.00000000000E+00 -0.74430144699E+03  0.74430144699E+03  0.00000000000E+00 0.  1.
         24    2    1    2    0    0 -0.89093478599E+02 -0.10663185038E+02  0.43545991037E+02  0.12893166408E+03  0.81705380618E+02 0.  0.
         25    2    1    2    0    0  0.28819640864E+01 -0.29120344337E+03 -0.71594661948E+02  0.32489885199E+03  0.12500286899E+03 0.  0.
         24    2    1    2    0    0  0.11163345794E+02  0.63843925019E+02  0.16822070087E+03  0.19716571737E+03  0.79846407913E+02 0.  0.
        -11    1    3    3    0    0 -0.99502941510E+02  0.73912034388E+01  0.30457625363E+02  0.10432225170E+03  0.00000000000E+00 0.  1.
         12    1    3    3    0    0  0.10409462911E+02 -0.18054388477E+02  0.13088365675E+02  0.24609412374E+02  0.00000000000E+00 0. -1.
        -13    1    5    5    0    0  0.18084095764E+02 -0.14815550231E+02  0.30709904390E+02  0.38595767590E+02  0.00000000000E+00 0.  1.
         14    1    5    5    0    0 -0.69207499700E+01  0.78659475250E+02  0.13751079648E+03  0.15856994978E+03  0.00000000000E+00 0. -1.
          5    1    4    4  502    0  0.11954054843E+02  0.93589125707E+01 -0.63880438155E+00  0.15905556976E+02  0.47000000000E+01 0. -1.
         -5    1    4    4    0  502 -0.90720907562E+01 -0.30056235594E+03 -0.70955857566E+02  0.30899329501E+03  0.47000000000E+01 0. -1.
          1    1    1    2  503    0  0.13438941148E+03  0.21552474121E+03  0.17423472469E+04  0.17607627202E+04  0.00000000000E+00 0. -1.
         -2    1    1    2    0  501 -0.59341242765E+02  0.22497962176E+02 -0.47758253846E+03  0.48178067877E+03  0.00000000000E+00 0.  1.
<mgrwt>
<rscale>  0 0.10587073E+03</rscale>
<asrwt>0</asrwt>
<pdfrwt beam="1">  1        2 0.31606444E+00 0.17661672E+03</pdfrwt>
<pdfrwt beam="2">  1       -1 0.10945610E+00 0.63462914E+02</pdfrwt>
<totfact> 0.74051944E+00</totfact>
</mgrwt>
</event>
<event>
13    1  0.2101801E-008  0.6636656E+02  0.7546771E-02  0.1446387E+00
          2   -1    0    0  503    0  0.00000000000E+00  0.00000000000E+00  0.15213526144E+04  0.15213526144E+04  0.00000000000E+00 0. -1.
          2   -1    0    0  502    0 -0.00000000000E+00 -0.00000000000E+00 -0.63194398121E+03  0.63194398121E+03  0.00000000000E+00 0. -1.
         24    2    1    2    0    0  0.65046484511E+02 -0.29594256778E+02 -0.29629603748E+03  0.31540624657E+03  0.81135031706E+02 0.  0.
         25    2    1    2    0    0  0.61244106669E+02 -0.19165966731E+02  0.91071597018E+03  0.92149161638E+03  0.12500018331E+03 0.  0.
         24    2    1    2    0    0 -0.47133907435E+02 -0.11503837597E+02 -0.11454413264E+03  0.14741883718E+03  0.79107595855E+02 0.  0.
        -11    1    5    5    0    0  0.21059548250E+02 -0.12706653024E+02 -0.30583511279E+02  0.39246844022E+02  0.00000000000E+00 0.  1.
         12    1    5    5    0    0 -0.68193455684E+02  0.12028154269E+01 -0.83960621366E+02  0.10817199316E+03  0.00000000000E+00 0. -1.
        -13    1    3    3    0    0  0.65669830066E+02 -0.52843731791E+02 -0.21798418304E+03  0.23371369371E+03  0.00000000000E+00 0.  1.
         14    1    3    3    0    0 -0.62334555529E+00  0.23249475013E+02 -0.78311854437E+02  0.81692552864E+02  0.00000000000E+00 0. -1.
          5    1    4    4  501    0  0.45466971302E+02 -0.68174548960E+02  0.68665986587E+03  0.69154817330E+03  0.47000000000E+01 0.  1.
         -5    1    4    4    0  501  0.15777135367E+02  0.49008582230E+02  0.22405610432E+03  0.22994344308E+03  0.47000000000E+01 0.  1.
          1    1    1    2  502    0 -0.36013813305E+02  0.10008766055E+02 -0.18596442060E+03  0.18968377863E+03  0.00000000000E+00 0. -1.
          1    1    1    2  503    0 -0.43142870440E+02  0.50255295051E+02  0.57549725373E+03  0.57929611685E+03  0.00000000000E+00 0. -1.
<mgrwt>
<rscale>  0 0.49806609E+02</rscale>
<asrwt>0</asrwt>
<pdfrwt beam="1">  1        2 0.22372832E+00 0.66366559E+02</pdfrwt>
<pdfrwt beam="2">  1        2 0.92932939E-01 0.37378739E+02</pdfrwt>
<totfact> 0.13159411E+02</totfact>
</mgrwt>
</event>
<event>
13    1  0.2101801E-008  0.1662809E+03  0.7546771E-02  0.1301603E+00
          2   -1    0    0  502    0  0.00000000000E+00  0.00000000000E+00  0.74649302274E+03  0.74649302274E+03  0.00000000000E+00 0. -1.
          2   -1    0    0  503    0 -0.00000000000E+00 -0.00000000000E+00 -0.37042347318E+04  0.37042347318E+04  0.00000000000E+00 0. -1.
         24    2    1    2    0    0 -0.51702065941E+01  0.89562328085E+02 -0.54195504197E+03  0.55506539841E+03  0.79587608014E+02 0.  0.
         25    2    1    2    0    0 -0.12982099796E+03 -0.35360339349E+03 -0.22900834802E+03  0.45821356732E+03  0.12500399358E+03 0.  0.
         24    2    1    2    0    0 -0.24109550957E+02  0.47297376290E+02 -0.53982552329E+03  0.54836196048E+03  0.80442102513E+02 0.  0.
        -11    1    3    3    0    0 -0.23184754630E+02  0.12142818909E+02 -0.28243747096E+03  0.28364750290E+03  0.00000000000E+00 0.  1.
         12    1    3    3    0    0  0.18014548036E+02  0.77419509176E+02 -0.25951757101E+03  0.27141789551E+03  0.00000000000E+00 0. -1.
        -11    1    5    5    0    0 -0.46513601853E+02  0.50465960118E+02 -0.31440609320E+03  0.32180975705E+03  0.00000000000E+00 0.  1.
         12    1    5    5    0    0  0.22404050896E+02 -0.31685838279E+01 -0.22541943009E+03  0.22655220344E+03  0.00000000000E+00 0. -1.
          5    1    4    4  501    0 -0.14303289925E+03 -0.21941574246E+03 -0.15178026585E+03  0.30275570583E+03  0.47000000000E+01 0.  1.
         -5    1    4    4    0  501  0.13211901285E+02 -0.13418765103E+03 -0.77228082169E+02  0.15545786149E+03  0.47000000000E+01 0.  1.
          1    1    1    2  502    0 -0.33374405865E+02  0.36251378411E+02  0.61239952286E+03  0.61437870162E+03  0.00000000000E+00 0. -1.
          1    1    1    2  503    0  0.19247516138E+03  0.18049231071E+03 -0.22593523186E+04  0.22747081267E+04  0.00000000000E+00 0. -1.
<mgrwt>
<rscale>  0 0.90517792E+02</rscale>
<asrwt>0</asrwt>
<pdfrwt beam="1">  1        2 0.10977839E+00 0.49274876E+02</pdfrwt>
<pdfrwt beam="2">  1        2 0.54474040E+00 0.16628090E+03</pdfrwt>
<totfact> 0.70143274E+00</totfact>
</mgrwt>
</event>
<event>
13    1  0.2101801E-008  0.4995268E+02  0.7546771E-02  0.1464726E+00
          2   -1    0    0  503    0  0.00000000000E+00  0.00000000000E+00  0.17773649791E+04  0.17773649791E+04  0.00000000000E+00 0. -1.
          2   -1    0    0  502    0 -0.00000000000E+00 -0.00000000000E+00 -0.13075799977E+04  0.13075799977E+04  0.00000000000E+00 0. -1.
         24    2    1    2    0    0 -0.23693197772E+03  0.13558585334E+02 -0.49620893326E+03  0.55560848545E+03  0.78465829211E+02 0.  0.
         25    2    1    2    0    0  0.33110640012E+03 -0.10286325746E+03  0.15038419148E+04  0.15483472309E+04  0.12500537956E+03 0.  0.
         24    2    1    2    0    0 -0.67890883512E+02  0.15340409619E+02 -0.20395299521E+03  0.23001416584E+03  0.80406417659E+02 0.  0.
        -11    1    3    3    0    0 -0.15003465901E+02  0.23403075763E+02 -0.56667828460E+02  0.63119337184E+02  0.00000000000E+00 0.  1.
         12    1    3    3    0    0 -0.22192851182E+03 -0.98444904295E+01 -0.43954110480E+03  0.49248914827E+03  0.00000000000E+00 0. -1.
        -13    1    5    5    0    0  0.30845980308E+01 -0.22467868433E+02 -0.72000008223E+02  0.75487224357E+02  0.00000000000E+00 0.  1.
         14    1    5    5    0    0 -0.70975481543E+02  0.37808278052E+02 -0.13195298699E+03  0.15452694149E+03  0.00000000000E+00 0. -1.
          5    1    4    4  501    0  0.33268363981E+03 -0.90746235728E+02  0.13290480848E+04  0.13730637950E+04  0.47000000000E+01 0. -1.
         -5    1    4    4    0  501 -0.15772396920E+01 -0.12117021735E+02  0.17479383000E+03  0.17528343591E+03  0.47000000000E+01 0. -1.
          1    1    1    2  502    0  0.11833824584E+02  0.41787571010E+02 -0.53856535851E+03  0.54031369212E+03  0.00000000000E+00 0. -1.
          1    1    1    2  503    0 -0.38117363476E+02  0.32176691500E+02  0.20467035356E+03  0.21066140249E+03  0.00000000000E+00 0. -1.
<mgrwt>
<rscale>  0 0.46577768E+02</rscale>
<asrwt>0</asrwt>
<pdfrwt beam="1">  1        2 0.26137720E+00 0.49952682E+02</pdfrwt>
<pdfrwt beam="2">  1        2 0.19229118E+00 0.43430870E+02</pdfrwt>
<totfact> 0.41394229E+01</totfact>
</mgrwt>
</event>
<event>
13    1  0.2101801E-008  0.7838132E+02  0.7546771E-02  0.1348271E+00
         -1   -1    0    0    0  501 -0.00000000000E+00  0.00000000000E+00  0.37784405458E+03  0.37784405458E+03  0.00000000000E+00 0.  1.
          2   -1    0    0  503    0  0.00000000000E+00 -0.00000000000E+00 -0.12571982480E+04  0.12571982480E+04  0.00000000000E+00 0. -1.
         24    2    1    2    0    0  0.11697111222E+03  0.22291127419E+02  0.95975111721E+02  0.17267988961E+03  0.80174726370E+02 0.  0.
         25    2    1    2    0    0 -0.16608525397E+03  0.70668866416E+01 -0.28346333523E+03  0.35158284097E+03  0.12499911667E+03 0.  0.
         24    2    1    2    0    0 -0.18945372945E+02  0.73628081075E+02 -0.12863594866E+03  0.17063900372E+03  0.82404131101E+02 0.  0.
        -11    1    3    3    0    0  0.67084695900E+02 -0.49527242062E+01  0.94275735403E+02  0.11581364422E+03  0.00000000000E+00 0.  1.
         12    1    3    3    0    0  0.49886416323E+02  0.27243851626E+02  0.16993763184E+01  0.56866245390E+02  0.00000000000E+00 0. -1.
        -13    1    5    5    0    0  0.10809496242E+02 -0.14300547571E+02 -0.11996541338E+02  0.21570068936E+02  0.00000000000E+00 0.  1.
         14    1    5    5    0    0 -0.29754869187E+02  0.87928628646E+02 -0.11663940733E+03  0.14906893478E+03  0.00000000000E+00 0. -1.
          5    1    4    4  502    0 -0.10285349737E+03 -0.17611514902E+01 -0.26598366724E+03  0.28522157144E+03  0.47000000000E+01 0. -1.
         -5    1    4    4    0  502 -0.63231756605E+02  0.88280381318E+01 -0.17479667990E+02  0.66361269530E+02  0.47000000000E+01 0. -1.
          1    1    1    2  503    0  0.64368241820E+02 -0.25144158264E+02 -0.74195416731E+03  0.74516540824E+03  0.00000000000E+00 0. -1.
         -2    1    1    2    0  501  0.36912728769E+01 -0.77841936872E+02  0.17872414609E+03  0.19497516003E+03  0.00000000000E+00 0.  1.
<mgrwt>
<rscale>  0 0.73597147E+02</rscale>
<asrwt>0</asrwt>
<pdfrwt beam="2">  1        2 0.18488210E+00 0.69104987E+02</pdfrwt>
<pdfrwt beam="1">  1       -1 0.55565302E-01 0.78381320E+02</pdfrwt>
<totfact> 0.85751864E+01</totfact>
</mgrwt>
</event>
<event>
13    1  0.2101801E-008  0.1297578E+03  0.7546771E-02  0.1421449E+00
          2   -1    0    0  503    0  0.00000000000E+00  0.00000000000E+00  0.96232712789E+03  0.96232712789E+03  0.00000000000E+00 0. -1.
          2   -1    0    0  502    0 -0.00000000000E+00 -0.00000000000E+00 -0.46485943986E+04  0.46485943986E+04  0.00000000000E+00 0. -1.
         24    2    1    2    0    0  0.12446791479E+03  0.98888798487E+02 -0.17721755033E+04  0.17810774032E+04  0.79746131187E+02 0.  0.
         25    2    1    2    0    0 -0.13662843840E+03  0.98601553928E+02  0.64835054455E+03  0.68144977517E+03  0.12500308334E+03 0.  0.
         24    2    1    2    0    0 -0.87056171113E+02 -0.10343142992E+03 -0.48020856154E+02  0.16361921354E+03  0.78666427340E+02 0.  0.
        -13    1    3    3    0    0  0.37247727924E+02  0.78743867587E+02 -0.97850033705E+03  0.98237004206E+03  0.00000000000E+00 0.  1.
         14    1    3    3    0    0  0.87220186868E+02  0.20144930900E+02 -0.79367516627E+03  0.79870736117E+03  0.00000000000E+00 0. -1.
        -13    1    5    5    0    0 -0.62181875724E+02 -0.50510016706E+02  0.10611543124E+02  0.80811213973E+02  0.00000000000E+00 0.  1.
         14    1    5    5    0    0 -0.24874295389E+02 -0.52921413215E+02 -0.58632399279E+02  0.82807999571E+02  0.00000000000E+00 0. -1.
          5    1    4    4  501    0 -0.10054237638E+03  0.63878251848E+02  0.22058346525E+03  0.25073562899E+03  0.47000000000E+01 0.  1.
         -5    1    4    4    0  501 -0.36086062022E+02  0.34723302080E+02  0.42776707930E+03  0.43071414617E+03  0.47000000000E+01 0.  1.
          1    1    1    2  502    0  0.10756703901E+03 -0.72550928491E+02 -0.27474977810E+04  0.27505596452E+04  0.00000000000E+00 0. -1.
          1    1    1    2  503    0 -0.83503442853E+01 -0.21507994003E+02  0.23307632525E+03  0.23421548934E+03  0.00000000000E+00 0. -1.
<mgrwt>
<rscale>  0 0.54715500E+02</rscale>
<asrwt>0</asrwt>
<pdfrwt beam="1">  1        2 0.14151870E+00 0.23072106E+02</pdfrwt>
<pdfrwt beam="2">  1        2 0.68361682E+00 0.12975781E+03</pdfrwt>
<totfact> 0.11716911E+00</totfact>
</mgrwt>
</event>
<event>
13    1  0.2101801E-008  0.7015484E+02  0.7546771E-02  0.1416300E+00
          2   -1    0    0  503    0  0.00000000000E+00  0.00000000000E+00  0.12960872998E+04  0.12960872998E+04  0.00000000000E+00 0. -1.
          2   -1    0    0  502    0 -0.00000000000E+00 -0.00000000000E+00 -0.15926069307E+04  0.15926069307E+04  0.00000000000E+00 0. -1.
         24    2    1    2    0    0 -0.13484870049E+03 -0.42345775551E+02 -0.24782367057E+02  0.16380927333E+03  0.79006174317E+02 0.  0.
         25    2    1    2    0    0  0.21530199577E+03  0.67780430938E+02 -0.22380636349E+03  0.34156268465E+03  0.12500657188E+03 0.  0.
         24    2    1    2    0    0  0.59308230343E+01 -0.21416215411E+02  0.54275023912E+03  0.54626939299E+03  0.57780608432E+02 0.  0.
        -13    1    5    5    0    0  0.17514920805E+02 -0.10868385424E+02  0.63473110290E+02  0.66736271865E+02  0.00000000000E+00 0.  1.
         14    1    5    5    0    0 -0.11584097771E+02 -0.10547829988E+02  0.47927712883E+03  0.47953312112E+03  0.00000000000E+00 0. -1.
        -13    1    3    3    0    0 -0.69193430026E+02  0.95560020120E+01  0.14527360461E+02  0.71344881633E+02  0.00000000000E+00 0.  1.
         14    1    3    3    0    0 -0.65655270463E+02 -0.51901777563E+02 -0.39309727518E+02  0.92464391694E+02  0.00000000000E+00 0. -1.
          5    1    4    4  501    0  0.86324713043E+02  0.35656605251E+02 -0.17768535567E+03  0.20079224387E+03  0.47000000000E+01 0. -1.
         -5    1    4    4    0  501  0.12897728272E+03  0.32123825687E+02 -0.46121007815E+02  0.14077044078E+03  0.47000000000E+01 0. -1.
          1    1    1    2  502    0 -0.26335061915E+02  0.35747443110E+02 -0.12113780072E+04  0.12121914418E+04  0.00000000000E+00 0. -1.
          1    1    1    2  503    0 -0.60049056397E+02 -0.39765883086E+02  0.62069686778E+03  0.62486143768E+03  0.00000000000E+00 0. -1.
<mgrwt>
<rscale>  0 0.55811455E+02</rscale>
<asrwt>0</asrwt>
<pdfrwt beam="1">  1        2 0.19060107E+00 0.70154841E+02</pdfrwt>
<pdfrwt beam="2">  1        2 0.23420690E+00 0.44400621E+02</pdfrwt>
<totfact> 0.50039560E+01</totfact>
</mgrwt>
</event>
<event>
13    1  0.2101801E-008  0.8257930E+02  0.7546771E-02  0.1344816E+00
          2   -1    0    0  502    0  0.00000000000E+00  0.00000000000E+00  0.75014745433E+03  0.75014745433E+03  0.00000000000E+00 0. -1.
          2   -1    0    0  503    0 -0.00000000000E+00 -0.00000000000E+00 -0.11780292558E+04  0.11780292558E+04  0.00000000000E+00 0. -1.
         24    2    1    2    0    0  0.57324916140E+02 -0.56807974216E+02 -0.12018305912E+03  0.16578599627E+03  0.80794411408E+02 0.  0.
         25    2    1    2    0    0  0.86160089915E+02 -0.24931146626E+02  0.34825150556E+03  0.38072272345E+03  0.12500223143E+03 0.  0.
         24    2    1    2    0    0 -0.58331873721E+02  0.15548334409E+03 -0.54553209453E+03  0.57588923952E+03  0.80408160320E+02 0.  0.
        -11    1    3    3    0    0  0.51340858350E+02 -0.27148877593E+02 -0.12236782463E+03  0.13545046989E+03  0.00000000000E+00 0.  1.
         12    1    3    3    0    0  0.59840577899E+01 -0.29659096624E+02  0.21847655072E+01  0.30335526375E+02  0.00000000000E+00 0. -1.
        -11    1    5    5    0    0 -0.26710619872E+02  0.22163594400E+02 -0.21962549041E+03  0.22235115958E+03  0.00000000000E+00 0.  1.
         12    1    5    5    0    0 -0.31621253849E+02  0.13331974969E+03 -0.32590660412E+03  0.35353807993E+03  0.00000000000E+00 0. -1.
          5    1    4    4  501    0 -0.15685102831E+02  0.32639193586E+02  0.92362792477E+02  0.99319257161E+02  0.47000000000E+01 0. -1.
         -5    1    4    4    0  501  0.10184519275E+03 -0.57570340212E+02  0.25588871308E+03  0.28140346629E+03  0.47000000000E+01 0. -1.
          1    1    1    2  502    0 -0.67222671256E+02  0.67872398721E+01  0.34062033488E+03  0.34725662944E+03  0.00000000000E+00 0. -1.
          1    1    1    2  503    0 -0.17930461078E+02 -0.80531463120E+02 -0.45103848829E+03  0.45852212150E+03  0.00000000000E+00 0. -1.
<mgrwt>
<rscale>  0 0.74695548E+02</rscale>
<asrwt>0</asrwt>
<pdfrwt beam="1">  1        2 0.11031580E+00 0.67564444E+02</pdfrwt>
<pdfrwt beam="2">  1        2 0.17323959E+00 0.82579304E+02</pdfrwt>
<totfact> 0.15685822E+02</totfact>
</mgrwt>
</event>
<event>
13    1  0.2101801E-008  0.1198737E+03  0.7546771E-02  0.1275014E+00
          2   -1    0    0  502    0  0.00000000000E+00  0.00000000000E+00  0.40305908107E+04  0.40305908107E+04  0.00000000000E+00 0. -1.
          2   -1    0    0  503    0 -0.00000000000E+00 -0.00000000000E+00 -0.10005183221E+04  0.10005183221E+04  0.00000000000E+00 0. -1.
         24    2    1    2    0    0  0.22805189159E+02  0.10588271420E+02 -0.21353761241E+01  0.80333905370E+02  0.76267872506E+02 0.  0.
         25    2    1    2    0    0  0.24197507078E+03  0.50404043051E+02  0.48613671339E+03  0.55950642825E+03  0.12500414677E+03 0.  0.
         24    2    1    2    0    0  0.33541394080E+01  0.66116367632E+02  0.81894510821E+02  0.12765659088E+03  0.72158644477E+02 0.  0.
        -11    1    3    3    0    0  0.12468775659E+02  0.33531870074E+02  0.24755431485E+02  0.43505034940E+02  0.00000000000E+00 0.  1.
         12    1    3    3    0    0  0.10336413500E+02 -0.22943598655E+02 -0.26890807609E+02  0.36828870430E+02  0.00000000000E+00 0. -1.
        -13    1    5    5    0    0  0.32088977452E+02  0.53124606953E+02  0.35320395746E+02  0.71410480278E+02  0.00000000000E+00 0.  1.
         14    1    5    5    0    0 -0.28734838044E+02  0.12991760679E+02  0.46574115075E+02  0.56246110603E+02  0.00000000000E+00 0. -1.
          5    1    4    4  501    0  0.20099754755E+03 -0.10255450214E+02  0.38642175285E+03  0.43571670780E+03  0.47000000000E+01 0. -1.
         -5    1    4    4    0  501  0.40977523233E+02  0.60659493264E+02  0.99714960535E+02  0.12378972045E+03  0.47000000000E+01 0. -1.
          1    1    1    2  502    0 -0.81084346848E+02 -0.67312277447E+02  0.33523411635E+04  0.33539971513E+04  0.00000000000E+00 0. -1.
          1    1    1    2  503    0 -0.18705005250E+03 -0.59796404656E+02 -0.88816452301E+03  0.90961505709E+03  0.00000000000E+00 0. -1.
<mgrwt>
<rscale>  0 0.10255476E+03</rscale>
<asrwt>0</asrwt>
<pdfrwt beam="1">  1        2 0.59273394E+00 0.87738016E+02</pdfrwt>
<pdfrwt beam="2">  1        2 0.14713505E+00 0.11987369E+03</pdfrwt>
<totfact> 0.32803280E+00</totfact>
</mgrwt>
</event>
<event>
13    1  0.2101801E-008  0.2612858E+03  0.7546771E-02  0.1258425E+00
          2   -1    0    0  502    0  0.00000000000E+00  0.00000000000E+00  0.33173327817E+04  0.33173327817E+04  0.00000000000E+00 0. -1.
          2   -1    0    0  503    0 -0.00000000000E+00 -0.00000000000E+00 -0.23046338009E+04  0.23046338009E+04  0.00000000000E+00 0. -1.
         24    2    1    2    0    0  0.26274664348E+03  0.14664423727E+04  0.36945177165E+03  0.15384878887E+04  0.10469642170E+03 0.  0.
         25    2    1    2    0    0  0.56339907420E+03 -0.28362086474E+03  0.39865670641E+03  0.75658603263E+03  0.12504376626E+03 0.  0.
         24    2    1    2    0    0 -0.94072225566E+03 -0.93140317226E+03  0.84272832877E+03  0.15713133551E+04  0.79777141623E+02 0.  0.
        -11    1    5    5    0    0 -0.18732743057E+03 -0.21774380236E+03  0.21103875562E+03  0.35642851469E+03  0.00000000000E+00 0.  1.
         12    1    5    5    0    0 -0.75339482509E+03 -0.71365936989E+03  0.63168957315E+03  0.12148848404E+04  0.00000000000E+00 0. -1.
        -13    1    3    3    0    0  0.18963405335E+03  0.10539839034E+04  0.31368412504E+03  0.11159036129E+04  0.00000000000E+00 0.  1.
         14    1    3    3    0    0  0.73112590130E+02  0.41245846930E+03  0.55767646610E+02  0.42258427578E+03  0.00000000000E+00 0. -1.
          5    1    4    4  501    0  0.82992171905E+01 -0.86638932079E+01  0.37185644386E+02  0.39354824354E+02  0.47000000000E+01 0. -1.
         -5    1    4    4    0  501  0.55509985701E+03 -0.27495697154E+03  0.36147106202E+03  0.71723120828E+03  0.47000000000E+01 0. -1.
          1    1    1    2  502    0  0.47286241427E+02  0.99267327922E+00  0.56322125652E+03  0.56520364279E+03  0.00000000000E+00 0. -1.
          1    1    1    2  503    0  0.67290296557E+02 -0.25241100902E+03 -0.11613590826E+04  0.11903756634E+04  0.00000000000E+00 0. -1.
<mgrwt>
<rscale>  0 0.11116629E+03</rscale>
<asrwt>0</asrwt>
<pdfrwt beam="1">  1        2 0.48784306E+00 0.47296660E+02</pdfrwt>
<pdfrwt beam="2">  1        2 0.33891673E+00 0.26128578E+03</pdfrwt>
<totfact> 0.20202360E+00</totfact>
</mgrwt>
</event>
<event>
13    1  0.2101801E-008  0.2385000E+03  0.7546771E-02  0.1221036E+00
          2   -1    0    0  502    0  0.00000000000E+00  0.00000000000E+00  0.18747193720E+04  0.18747193720E+04  0.00000000000E+00 0. -1.
          2   -1    0    0  503    0 -0.00000000000E+00 -0.00000000000E+00 -0.17956857799E+04  0.17956857799E+04  0.00000000000E+00 0. -1.
         24    2    1    2    0    0  0.50549389474E+03 -0.51785460956E+03 -0.94375586744E+02  0.73413532381E+03  0.79689698328E+02 0.  0.
         25    2    1    2    0    0 -0.71974334630E+03  0.10198555487E+03  0.36350674707E+03  0.82230956495E+03  0.12499731000E+03 0.  0.
         24    2    1    2    0    0  0.76661823536E+02  0.26560520972E+03  0.14240906094E+03  0.32003470190E+03  0.75622134101E+02 0.  0.
        -13    1    5    5    0    0  0.23865895072E+01  0.42468051700E+02 -0.44576250695E+01  0.42767997918E+02  0.00000000000E+00 0.  1.
         14    1    5    5    0    0  0.74275234029E+02  0.22313715802E+03  0.14686668601E+03  0.27726670398E+03  0.00000000000E+00 0. -1.
        -13    1    3    3    0    0  0.33187373732E+03 -0.30777003415E+03 -0.90437700730E+02  0.46156424164E+03  0.00000000000E+00 0.  1.
         14    1    3    3    0    0  0.17362015743E+03 -0.21008457541E+03 -0.39378860141E+01  0.27257108217E+03  0.00000000000E+00 0. -1.
          5    1    4    4  501    0 -0.71217135012E+03  0.11020440154E+03  0.34216972114E+03  0.79776892025E+03  0.47000000000E+01 0. -1.
         -5    1    4    4    0  501 -0.75719961737E+01 -0.82188466767E+01  0.21337025932E+02  0.24540644702E+02  0.47000000000E+01 0. -1.
          1    1    1    2  502    0  0.20722829103E+03  0.12042509454E+03  0.70964311225E+03  0.74902544333E+03  0.00000000000E+00 0. -1.
          1    1    1    2  503    0 -0.69640663008E+02  0.29838750438E+02 -0.10421497414E+04  0.10449001180E+04  0.00000000000E+00 0. -1.
<mgrwt>
<rscale>  0 0.13442356E+03</rscale>
<asrwt>0</asrwt>
<pdfrwt beam="1">  1        2 0.27569402E+00 0.23849995E+03</pdfrwt>
<pdfrwt beam="2">  1        2 0.26407144E+00 0.75763929E+02</pdfrwt>
<totfact> 0.17839721E+01</totfact>
</mgrwt>
</event>
<event>
13    1  0.2101801E-008  0.8605184E+02  0.7546771E-02  0.1494444E+00
          2   -1    0    0  503    0  0.00000000000E+00  0.00000000000E+00  0.80087425504E+03  0.80087425504E+03  0.00000000000E+00 0. -1.
         -1   -1    0    0    0  501 -0.00000000000E+00 -0.00000000000E+00 -0.47762439257E+03  0.47762439257E+03  0.00000000000E+00 0.  1.
         24    2    1    2    0    0 -0.42005014947E+02 -0.22615418113E+01 -0.19399195509E+03  0.21418294337E+03  0.80448236395E+02 0.  0.
         25    2    1    2    0    0  0.16433219864E+03  0.63922956888E+02  0.29878709197E+03  0.36876755154E+03  0.12499825924E+03 0.  0.
         24    2    1    2    0    0 -0.58723072414E+02  0.26299822428E+01 -0.36866400857E+02  0.98417442317E+02  0.69796456929E+02 0.  0.
        -13    1    5    5    0    0 -0.66026628156E+02 -0.18304879831E+02 -0.23038664967E+02  0.72286681586E+02  0.00000000000E+00 0.  1.
         14    1    5    5    0    0  0.73035557423E+01  0.20934862074E+02 -0.13827735890E+02  0.26130760731E+02  0.00000000000E+00 0. -1.
        -13    1    3    3    0    0 -0.61080495091E+02 -0.53911503535E+01 -0.93255697010E+02  0.11160876492E+03  0.00000000000E+00 0.  1.
         14    1    3    3    0    0  0.19075480144E+02  0.31296085422E+01 -0.10073625808E+03  0.10257417844E+03  0.00000000000E+00 0. -1.
          5    1    4    4  502    0 -0.80320153316E+01 -0.17946869064E+02  0.58489265602E+02  0.61884469539E+02  0.47000000000E+01 0.  1.
         -5    1    4    4    0  502  0.17236421397E+03  0.81869825953E+02  0.24029782636E+03  0.30688308200E+03  0.47000000000E+01 0.  1.
          1    1    1    2  503    0 -0.18411527246E+02  0.88653320427E+01  0.41514230634E+03  0.41564493617E+03  0.00000000000E+00 0. -1.
         -2    1    1    2    0  501 -0.45192584035E+02 -0.73156729363E+02 -0.15982117989E+03  0.18148577422E+03  0.00000000000E+00 0.  1.
<mgrwt>
<rscale>  0 0.41933838E+02</rscale>
<asrwt>0</asrwt>
<pdfrwt beam="1">  1        2 0.11777563E+00 0.20434736E+02</pdfrwt>
<pdfrwt beam="2">  1       -1 0.70238882E-01 0.86051843E+02</pdfrwt>
<totfact> 0.10368752E+02</totfact>
</mgrwt>
</event>
<event>
13    1  0.2101801E-008  0.8053561E+02  0.7546771E-02  0.1399870E+00
          2   -1    0    0  503    0  0.00000000000E+00  0.00000000000E+00  0.64656810531E+03  0.64656810531E+03  0.00000000000E+00 0. -1.
          2   -1    0    0  502    0 -0.00000000000E+00 -0.00000000000E+00 -0.20734624270E+04  0.20734624270E+04  0.00000000000E+00 0. -1.
         24    2    1    2    0    0 -0.35531142425E+01 -0.70613249500E+02 -0.17552476753E+04  0.17584894019E+04  0.79948230203E+02 0.  0.
         25    2    1    2    0    0 -0.28079065343E+02  0.61117838511E+02  0.44191238232E+03  0.46414918386E+03  0.12499634847E+03 0.  0.
         24    2    1    2    0    0  0.52271412926E+02 -0.89365232502E+02 -0.46260386233E+02  0.13480106578E+03  0.72889358690E+02 0.  0.
        -11    1    3    3    0    0  0.16293600364E+02  0.12170628978E+02 -0.45814598724E+03  0.45859715574E+03  0.00000000000E+00 0.  1.
         12    1    3    3    0    0 -0.19846714606E+02 -0.82783878478E+02 -0.12971016880E+04  0.12998922462E+04  0.00000000000E+00 0. -1.
        -13    1    5    5    0    0  0.66133923844E+00  0.86402093425E+01 -0.18774328311E+02  0.20677668887E+02  0.00000000000E+00 0.  1.
         14    1    5    5    0    0  0.51610073688E+02 -0.98005441845E+02 -0.27486057923E+02  0.11412339689E+03  0.00000000000E+00 0. -1.
          5    1    4    4  501    0  0.44631256912E+02 -0.18280140827E-01  0.17970776471E+03  0.18522667228E+03  0.47000000000E+01 0.  1.
         -5    1    4    4    0  501 -0.72710322255E+02  0.61136118652E+02  0.26220461761E+03  0.27892251158E+03  0.47000000000E+01 0.  1.
          1    1    1    2  502    0  0.27466316350E+02  0.34354014033E+02 -0.20142837910E+03  0.20617465586E+03  0.00000000000E+00 0. -1.
          1    1    1    2  503    0 -0.48105549692E+02  0.64506629458E+02  0.13412973661E+03  0.15641622486E+03  0.00000000000E+00 0. -1.
<mgrwt>
<rscale>  0 0.59517075E+02</rscale>
<asrwt>0</asrwt>
<pdfrwt beam="1">  1        2 0.95083546E-01 0.80535605E+02</pdfrwt>
<pdfrwt beam="2">  1        2 0.30492094E+00 0.43984052E+02</pdfrwt>
<totfact> 0.72380120E+01</totfact>
</mgrwt>
</event>
<event>
13    1  0.2101801E-008  0.1089850E+03  0.7546771E-02  0.1272805E+00
          2   -1    0    0  502    0  0.00000000000E+00  0.00000000000E+00  0.14902105310E+04  0.14902105310E+04  0.00000000000E+00 0. -1.
          2   -1    0    0  503    0 -0.00000000000E+00 -0.00000000000E+00 -0.21359246136E+04  0.21359246136E+04  0.00000000000E+00 0. -1.
         24    2    1    2    0    0 -0.22086700061E+03 -0.38735703638E+03 -0.31083531874E+03  0.54948958829E+03  0.80576092421E+02 0.  0.
         25    2    1    2    0    0 -0.15666024034E+03  0.21436384101E+03  0.30817123215E+03  0.42554538407E+03  0.12500031337E+03 0.  0.
         24    2    1    2    0    0  0.19254785141E+03  0.80261815882E+02 -0.12169128551E+03  0.25424568897E+03  0.79469913928E+02 0.  0.
        -11    1    3    3    0    0 -0.11769536901E+02 -0.40309424442E+02 -0.59045454992E+02  0.72455071962E+02  0.00000000000E+00 0.  1.
         12    1    3    3    0    0 -0.20909746371E+03 -0.34704761194E+03 -0.25178986375E+03  0.47703451633E+03  0.00000000000E+00 0. -1.
        -13    1    5    5    0    0  0.16367666217E+02 -0.14396381367E+02 -0.39216493362E+01  0.22148038905E+02  0.00000000000E+00 0.  1.
         14    1    5    5    0    0  0.17618018520E+03  0.94658197249E+02 -0.11776963617E+03  0.23209765007E+03  0.00000000000E+00 0. -1.
          5    1    4    4  501    0  0.15647912125E+02  0.58170800077E+02  0.73097506437E+02  0.94836884084E+02  0.47000000000E+01 0.  1.
         -5    1    4    4    0  501 -0.17230815246E+03  0.15619304093E+03  0.23507372572E+03  0.33070849999E+03  0.47000000000E+01 0.  1.
          1    1    1    2  502    0  0.98890795822E+02  0.44715631066E+02  0.93293364142E+03  0.93922524267E+03  0.00000000000E+00 0. -1.
          1    1    1    2  503    0  0.86088593711E+02  0.48015748427E+02 -0.14542923520E+04  0.14576292406E+04  0.00000000000E+00 0. -1.
<mgrwt>
<rscale>  0 0.10364865E+03</rscale>
<asrwt>0</asrwt>
<pdfrwt beam="1">  1        2 0.21914861E+00 0.10898497E+03</pdfrwt>
<pdfrwt beam="2">  1        2 0.31410656E+00 0.98573617E+02</pdfrwt>
<totfact> 0.19773732E+01</totfact>
</mgrwt>
</event>
<event>
13    1  0.2101801E-008  0.7009404E+02  0.7546771E-02  0.1512852E+00
         -3   -1    0    0    0  501 -0.00000000000E+00  0.00000000000E+00  0.37125227223E+03  0.37125227223E+03  0.00000000000E+00 0.  1.
          2   -1    0    0  503    0  0.00000000000E+00 -0.00000000000E+00 -0.12185727294E+04  0.12185727294E+04  0.00000000000E+00 0. -1.
         24    2    1    2    0    0 -0.48980131786E+02  0.63285352019E+02  0.35179718856E+02  0.11820169135E+03  0.79560908293E+02 0.  0.
         25    2    1    2    0    0  0.15178602584E+03 -0.74009369536E+02 -0.39718647361E+03  0.44933282535E+03  0.12500603466E+03 0.  0.
         24    2    1    2    0    0 -0.34388527170E+02  0.19521539869E+02  0.15254566052E+02  0.89551004766E+02  0.78886116329E+02 0.  0.
        -11    1    5    5    0    0 -0.47899776148E+02  0.34849813239E+02 -0.66353423884E+01  0.59606424204E+02  0.00000000000E+00 0.  1.
         12    1    5    5    0    0  0.13511248979E+02 -0.15328273370E+02  0.21889908441E+02  0.29944580561E+02  0.00000000000E+00 0. -1.
        -13    1    3    3    0    0 -0.25159783886E+02  0.79899201889E+02  0.27429703474E+02  0.88143552347E+02  0.00000000000E+00 0.  1.
         14    1    3    3    0    0 -0.23820347901E+02 -0.16613849871E+02  0.77500153817E+01  0.30058138999E+02  0.00000000000E+00 0. -1.
          5    1    4    4  502    0  0.83368004470E+01  0.14541246101E+02 -0.14445631576E+03  0.14550143382E+03  0.47000000000E+01 0.  1.
         -5    1    4    4    0  502  0.14344922539E+03 -0.88550615637E+02 -0.25273015784E+03  0.30383139153E+03  0.47000000000E+01 0.  1.
          1    1    1    2  503    0 -0.51572830976E+01  0.21510649267E+02 -0.71078460055E+03  0.71112871829E+03  0.00000000000E+00 0. -1.
         -4    1    1    2    0  501 -0.63260083788E+02 -0.30308171618E+02  0.21021633212E+03  0.22161076183E+03  0.00000000000E+00 0.  1.
<mgrwt>
<rscale>  0 0.39376362E+02</rscale>
<asrwt>0</asrwt>
<pdfrwt beam="2">  1        2 0.17920187E+00 0.22120253E+02</pdfrwt>
<pdfrwt beam="1">  1       -3 0.54595923E-01 0.70094038E+02</pdfrwt>
<totfact> 0.48465053E+01</totfact>
</mgrwt>
</event>
<event>
13    1  0.2101801E-008  0.8188004E+02  0.7546771E-02  0.1338409E+00
          2   -1    0    0  503    0  0.00000000000E+00  0.00000000000E+00  0.32946596754E+04  0.32946596754E+04  0.00000000000E+00 0. -1.
          2   -1    0    0  502    0 -0.00000000000E+00 -0.00000000000E+00 -0.35167998714E+04  0.35167998714E+04  0.00000000000E+00 0. -1.
         24    2    1    2    0    0 -0.15751398740E+03 -0.33641091785E+03 -0.14628733632E+04  0.15111566562E+04  0.74919962458E+02 0.  0.
         25    2    1    2    0    0  0.71357248829E+03 -0.38785925069E+03  0.19476935998E+02  0.82196470143E+03  0.12500449980E+03 0.  0.
         24    2    1    2    0    0 -0.50709213532E+03  0.73888529181E+03  0.22165855930E+04  0.23918519840E+04  0.67899295302E+02 0.  0.
        -11    1    3    3    0    0 -0.10211023850E+03 -0.25034832708E+03 -0.92827324203E+03  0.96684641880E+03  0.00000000000E+00 0.  1.
         12    1    3    3    0    0 -0.55403748903E+02 -0.86062590767E+02 -0.53460012118E+03  0.54431023736E+03  0.00000000000E+00 0. -1.
        -13    1    5    5    0    0 -0.35195056590E+03  0.50205067297E+03  0.14316685194E+04  0.15574334106E+04  0.00000000000E+00 0.  1.
         14    1    5    5    0    0 -0.15514156942E+03  0.23683461884E+03  0.78491707359E+03  0.83441857341E+03  0.00000000000E+00 0. -1.
          5    1    4    4  501    0  0.25490457948E+03 -0.11303939135E+03  0.61542302715E+02  0.28559375634E+03  0.47000000000E+01 0.  1.
         -5    1    4    4    0  501  0.45866790881E+03 -0.27481985934E+03 -0.42065366718E+02  0.53637094509E+03  0.47000000000E+01 0.  1.
          1    1    1    2  502    0  0.10254835402E+02 -0.71286636566E+02 -0.15369810338E+04  0.15386674899E+04  0.00000000000E+00 0. -1.
          1    1    1    2  503    0 -0.59221200963E+02  0.56671513287E+02  0.54165167205E+03  0.54781871536E+03  0.00000000000E+00 0. -1.
<mgrwt>
<rscale>  0 0.76792175E+02</rscale>
<asrwt>0</asrwt>
<pdfrwt beam="1">  1        2 0.48450878E+00 0.81880044E+02</pdfrwt>
<pdfrwt beam="2">  1        2 0.51717645E+00 0.72020457E+02</pdfrwt>
<totfact> 0.50783220E-01</totfact>
</mgrwt>
</event>
<event>
13    1  0.2101801E-008  0.1661483E+03  0.7546771E-02  0.1210531E+00
          2   -1    0    0  502    0  0.00000000000E+00  0.00000000000E+00  0.11684207062E+04  0.11684207062E+04  0.00000000000E+00 0. -1.
          2   -1    0    0  503    0 -0.00000000000E+00 -0.00000000000E+00 -0.24257530166E+04  0.24257530166E+04  0.00000000000E+00 0. -1.
         24    2    1    2    0    0  0.75171797277E+02  0.38289586379E+02 -0.10839440104E+04  0.10901273995E+04  0.79537651304E+02 0.  0.
         25    2    1    2    0    0  0.29756217406E+03 -0.23562977604E+03  0.15079403105E+01  0.39961379326E+03  0.12499708431E+03 0.  0.
         24    2    1    2    0    0  0.11497765255E+02 -0.20005145418E+02  0.43701129392E+03  0.44474225210E+03  0.79274178276E+02 0.  0.
        -11    1    5    5    0    0 -0.30121259392E+02 -0.22303754501E+02  0.27093045581E+03  0.27351062066E+03  0.00000000000E+00 0.  1.
         12    1    5    5    0    0  0.41619024647E+02  0.22986090828E+01  0.16608083811E+03  0.17123163143E+03  0.00000000000E+00 0. -1.
        -13    1    3    3    0    0  0.18378574559E+02  0.47564464717E+02 -0.70468457572E+03  0.70652707065E+03  0.00000000000E+00 0.  1.
         14    1    3    3    0    0  0.56793222718E+02 -0.92748783375E+01 -0.37925943465E+03  0.38360032884E+03  0.00000000000E+00 0. -1.
          5    1    4    4  501    0  0.25396634850E+03 -0.13031675879E+03  0.38172267755E+01  0.28551361616E+03  0.47000000000E+01 0.  1.
         -5    1    4    4    0  501  0.43595825561E+02 -0.10531301725E+03 -0.23092864650E+01  0.11410017709E+03  0.47000000000E+01 0.  1.
          1    1    1    2  502    0 -0.31571639854E+03  0.12090793728E+03  0.46577394743E+03  0.57553535401E+03  0.00000000000E+00 0. -1.
          1    1    1    2  503    0 -0.68515338050E+02  0.96437397800E+02 -0.10776814817E+04  0.10841549240E+04  0.00000000000E+00 0. -1.
<mgrwt>
<rscale>  0 0.14210012E+03</rscale>
<asrwt>0</asrwt>
<pdfrwt beam="1">  1        2 0.17182658E+00 0.16614832E+03</pdfrwt>
<pdfrwt beam="2">  1        2 0.35672838E+00 0.12153264E+03</pdfrwt>
<totfact> 0.19899439E+01</totfact>
</mgrwt>
</event>
<event>
13    1  0.2101801E-008  0.2808646E+02  0.7546771E-02  0.1649029E+00
          2   -1    0    0  502    0  0.00000000000E+00  0.00000000000E+00  0.22144144039E+04  0.22144144039E+04  0.00000000000E+00 0. -1.
          2   -1    0    0  503    0 -0.00000000000E+00 -0.00000000000E+00 -0.24267717971E+04  0.24267717971E+04  0.00000000000E+00 0. -1.
         24    2    1    2    0    0 -0.18891957998E+03 -0.23499783060E+03 -0.14089686778E+03  0.34607293328E+03  0.94868117450E+02 0.  0.
         25    2    1    2    0    0  0.42817876879E+03  0.11552911570E+04  0.25836032304E+03  0.12650732925E+04  0.12500265380E+03 0.  0.
         24    2    1    2    0    0 -0.23239575471E+03 -0.89163061504E+03 -0.91357157406E+03  0.13015615965E+04  0.10215981689E+03 0.  0.
        -13    1    5    5    0    0 -0.37308480517E+02 -0.10373109577E+03 -0.68349831036E+02  0.12970644684E+03  0.00000000000E+00 0.  1.
         14    1    5    5    0    0 -0.19508727419E+03 -0.78789951926E+03 -0.84522174302E+03  0.11718551497E+04  0.00000000000E+00 0. -1.
        -13    1    3    3    0    0 -0.16772049039E+03 -0.24101040923E+03 -0.12627205971E+03  0.31962605231E+03  0.00000000000E+00 0.  1.
         14    1    3    3    0    0 -0.21199089597E+02  0.60125786333E+01 -0.14624808071E+02  0.26446880963E+02  0.00000000000E+00 0. -1.
          5    1    4    4  501    0  0.23210819220E+03  0.72625280434E+03  0.10872698953E+03  0.77016945989E+03  0.47000000000E+01 0. -1.
         -5    1    4    4    0  501  0.19607057658E+03  0.42903835261E+03  0.14963333351E+03  0.49490383259E+03  0.47000000000E+01 0. -1.
          1    1    1    2  502    0 -0.23096723898E+02 -0.57391915631E+01  0.11556473366E+04  0.11558923668E+04  0.00000000000E+00 0. -1.
          1    1    1    2  503    0  0.16233289801E+02 -0.22923519754E+02 -0.57189661098E+03  0.57258601197E+03  0.00000000000E+00 0. -1.
<mgrwt>
<rscale>  0 0.25854057E+02</rscale>
<asrwt>0</asrwt>
<pdfrwt beam="1">  1        2 0.32564918E+00 0.23799096E+02</pdfrwt>
<pdfrwt beam="2">  1        2 0.35687820E+00 0.28086456E+02</pdfrwt>
<totfact> 0.91054889E+00</totfact>
</mgrwt>
</event>
<event>
13    1  0.2101801E-008  0.9794073E+02  0.7546771E-02  0.1331484E+00
          2   -1    0    0  503    0  0.00000000000E+00  0.00000000000E+00  0.21751800764E+04  0.21751800764E+04  0.00000000000E+00 0. -1.
          2   -1    0    0  502    0 -0.00000000000E+00 -0.00000000000E+00 -0.85881201379E+03  0.85881201379E+03  0.00000000000E+00 0. -1.
         24    2    1    2    0    0 -0.48533437813E+02  0.13068479436E+03 -0.18658159544E+03  0.24683535309E+03  0.81737321452E+02 0.  0.
         25    2    1    2    0    0  0.16227484423E+03  0.23018641181E+03  0.16262178276E+03  0.34840997431E+03  0.12499902685E+03 0.  0.
         24    2    1    2    0    0 -0.15710192520E+03 -0.33866565844E+03  0.27404964207E+03  0.47018635917E+03  0.81219227519E+02 0.  0.
        -11    1    5    5    0    0 -0.80442971878E+01 -0.45159984227E+02  0.72127707729E+01  0.46434458701E+02  0.00000000000E+00 0.  1.
         12    1    5    5    0    0 -0.14905762801E+03 -0.29350567421E+03  0.26683687130E+03  0.42375190046E+03  0.00000000000E+00 0. -1.
        -11    1    3    3    0    0 -0.36746247167E+02  0.83516845900E+01 -0.56159959452E+02  0.67631193705E+02  0.00000000000E+00 0.  1.
         12    1    3    3    0    0 -0.11787190646E+02  0.12233310977E+03 -0.13042163599E+03  0.17920415939E+03  0.00000000000E+00 0. -1.
          5    1    4    4  501    0  0.11117316580E+02  0.68128116733E+02  0.93313742563E+02  0.11616617222E+03  0.47000000000E+01 0. -1.
         -5    1    4    4    0  501  0.15115752765E+03  0.16205829508E+03  0.69308040201E+02  0.23224380208E+03  0.47000000000E+01 0. -1.
          1    1    1    2  502    0 -0.54073504092E+02 -0.34165850660E+02 -0.44727587922E+03  0.45182625126E+03  0.00000000000E+00 0. -1.
          1    1    1    2  503    0  0.97434022867E+02  0.11960302929E+02  0.15135541124E+04  0.15167341524E+04  0.00000000000E+00 0. -1.
<mgrwt>
<rscale>  0 0.79149039E+02</rscale>
<asrwt>0</asrwt>
<pdfrwt beam="1">  1        2 0.31987942E+00 0.97940728E+02</pdfrwt>
<pdfrwt beam="2">  1        2 0.12629588E+00 0.63962874E+02</pdfrwt>
<totfact> 0.42751854E+01</totfact>
</mgrwt>
</event>
<event>
13    1  0.2101801E-008  0.1357346E+03  0.7546771E-02  0.1244264E+00
          2   -1    0    0  502    0  0.00000000000E+00  0.00000000000E+00  0.11950219628E+04  0.11950219628E+04  0.00000000000E+00 0. -1.
          2   -1    0    0  503    0 -0.00000000000E+00 -0.00000000000E+00 -0.31718096983E+04  0.31718096983E+04  0.00000000000E+00 0. -1.
         24    2    1    2    0    0 -0.80546214912E+02 -0.10549399771E+04 -0.13557992316E+04  0.17216944719E+04  0.81573587401E+02 0.  0.
         25    2    1    2    0    0 -0.13719197941E+03  0.96474027470E+03 -0.68305030841E+02  0.98480217743E+03  0.12499725827E+03 0.  0.
         24    2    1    2    0    0  0.52725718270E+02 -0.10053531508E+03 -0.18135680562E+03  0.22144463834E+03  0.57097162462E+02 0.  0.
        -11    1    3    3    0    0 -0.47458610805E+02 -0.49176453496E+03 -0.56918908333E+03  0.75369814261E+03  0.00000000000E+00 0.  1.
         12    1    3    3    0    0 -0.33087604107E+02 -0.56317544209E+03 -0.78661014827E+03  0.96799632927E+03  0.00000000000E+00 0. -1.
        -13    1    5    5    0    0  0.12350753233E+02 -0.49024046257E+02 -0.36093319944E+02  0.62117839317E+02  0.00000000000E+00 0.  1.
         14    1    5    5    0    0  0.40374965036E+02 -0.51511268823E+02 -0.14526348567E+03  0.15932679903E+03  0.00000000000E+00 0. -1.
          5    1    4    4  501    0 -0.76990263725E+02  0.27004192364E+03  0.21800474236E+02  0.28168686854E+03  0.47000000000E+01 0.  1.
         -5    1    4    4    0  501 -0.60201715681E+02  0.69469835106E+03 -0.90105505078E+02  0.70311530888E+03  0.47000000000E+01 0.  1.
          1    1    1    2  502    0  0.54440528824E+02  0.89605329979E+02  0.52233464322E+03  0.53275356953E+03  0.00000000000E+00 0. -1.
          1    1    1    2  503    0  0.11057194722E+03  0.10112968745E+03 -0.89366131072E+03  0.90613680395E+03  0.00000000000E+00 0. -1.
<mgrwt>
<rscale>  0 0.11929528E+03</rscale>
<asrwt>0</asrwt>
<pdfrwt beam="1">  1        2 0.17573853E+00 0.10484697E+03</pdfrwt>
<pdfrwt beam="2">  1        2 0.46644260E+00 0.13573462E+03</pdfrwt>
<totfact> 0.79194539E+00</totfact>
</mgrwt>
</event>
<event>
13    1  0.2101801E-008  0.1042460E+03  0.7546771E-02  0.1298851E+00
          2   -1    0    0  503    0  0.00000000000E+00  0.00000000000E+00  0.24358713835E+04  0.24358713835E+04  0.00000000000E+00 0. -1.
          2   -1    0    0  502    0 -0.00000000000E+00 -0.00000000000E+00 -0.14851614117E+04  0.14851614117E+04  0.00000000000E+00 0. -1.
         24    2    1    2    0    0 -0.27156764415E+02  0.23418546064E+02 -0.89223935824E+02  0.12556499488E+03  0.80744901151E+02 0.  0.
         25    2    1    2    0    0 -0.16096847155E+02  0.13110832373E+03  0.65179052956E+03  0.67668174550E+03  0.12497515444E+03 0.  0.
         24    2    1    2    0    0 -0.47812611714E+02  0.19820039776E+02 -0.13230555300E+03  0.16311932347E+03  0.80151572165E+02 0.  0.
        -11    1    3    3    0    0  0.22682925775E+02 -0.71682194177E+01 -0.49358983232E+02  0.54792405651E+02  0.00000000000E+00 0.  1.
         12    1    3    3    0    0 -0.49839690191E+02  0.30586765481E+02 -0.39864952591E+02  0.70772589228E+02  0.00000000000E+00 0. -1.
        -11    1    5    5    0    0  0.84548857490E+01 -0.23119110401E+02 -0.32933077668E+02  0.41116492596E+02  0.00000000000E+00 0.  1.
         12    1    5    5    0    0 -0.56267497463E+02  0.42939150176E+02 -0.99372475329E+02  0.12200283088E+03  0.00000000000E+00 0. -1.
          5    1    4    4  501    0  0.27859863599E+02  0.57854445236E+01  0.33196485506E+02  0.43974310888E+02  0.47000000000E+01 0. -1.
         -5    1    4    4    0  501 -0.43956710754E+02  0.12532287921E+03  0.61859404405E+03  0.63270743461E+03  0.47000000000E+01 0. -1.
          1    1    1    2  502    0  0.12016635681E+03 -0.99166354143E+02 -0.12116836394E+04  0.12216591837E+04  0.00000000000E+00 0. -1.
          1    1    1    2  503    0 -0.29100133527E+02 -0.75180555428E+02  0.17321325705E+04  0.17340075477E+04  0.00000000000E+00 0. -1.
<mgrwt>
<rscale>  0 0.91672741E+02</rscale>
<asrwt>0</asrwt>
<pdfrwt beam="1">  1        2 0.35821638E+00 0.80615964E+02</pdfrwt>
<pdfrwt beam="2">  1        2 0.21840609E+00 0.10424600E+03</pdfrwt>
<totfact> 0.14619496E+01</totfact>
</mgrwt>
</event>
<event>
13    1  0.2101801E-008  0.6024602E+02  0.7546771E-02  0.1402694E+00
          2   -1    0    0  502    0  0.00000000000E+00  0.00000000000E+00  0.15287770868E+04  0.15287770868E+04  0.00000000000E+00 0. -1.
          2   -1    0    0  503    0 -0.00000000000E+00 -0.00000000000E+00 -0.22212035907E+04  0.22212035907E+04  0.00000000000E+00 0. -1.
         24    2    1    2    0    0  0.15295098187E+03 -0.60271569870E+03 -0.10669986626E+04  0.12374926478E+04  0.79004373573E+02 0.  0.
         25    2    1    2    0    0  0.68434446358E+02  0.86003453982E+03  0.43960553543E+03  0.97632945294E+03  0.12499396290E+03 0.  0.
         24    2    1    2    0    0 -0.26382114057E+03 -0.36187882773E+03 -0.32739763923E+03  0.55744887748E+03  0.54791939714E+02 0.  0.
        -13    1    5    5    0    0 -0.42321787235E+02 -0.30151542386E+02 -0.31078678806E+02  0.60548604107E+02  0.00000000000E+00 0.  1.
         14    1    5    5    0    0 -0.22149935334E+03 -0.33172728534E+03 -0.29631896043E+03  0.49690027337E+03  0.00000000000E+00 0. -1.
        -13    1    3    3    0    0  0.35810991469E+02 -0.27085228283E+03 -0.51157568561E+03  0.57995954025E+03  0.00000000000E+00 0.  1.
         14    1    3    3    0    0  0.11713999040E+03 -0.33186341587E+03 -0.55542297695E+03  0.65753310751E+03  0.00000000000E+00 0. -1.
          5    1    4    4  501    0  0.39194185328E+02  0.23623264571E+03  0.65330953854E+02  0.24825847537E+03  0.47000000000E+01 0. -1.
         -5    1    4    4    0  501  0.29240261030E+02  0.62380189412E+03  0.37427458158E+03  0.72807097757E+03  0.47000000000E+01 0. -1.
          1    1    1    2  502    0  0.36058164036E+02  0.44787719521E+02  0.61666800295E+03  0.61934284275E+03  0.00000000000E+00 0. -1.
          1    1    1    2  503    0  0.63775483063E+01  0.59772267085E+02 -0.35430374056E+03  0.35936685658E+03  0.00000000000E+00 0. -1.
<mgrwt>
<rscale>  0 0.58856469E+02</rscale>
<asrwt>0</asrwt>
<pdfrwt beam="1">  1        2 0.22482016E+00 0.57498965E+02</pdfrwt>
<pdfrwt beam="2">  1        2 0.32664759E+00 0.60246022E+02</pdfrwt>
<totfact> 0.19207374E+01</totfact>
</mgrwt>
</event>
<event>
13    1  0.2101801E-008  0.1710842E+03  0.7546771E-02  0.1251847E+00
          2   -1    0    0  503    0  0.00000000000E+00  0.00000000000E+00  0.28065177643E+04  0.28065177643E+04  0.00000000000E+00 0. -1.
          2   -1    0    0  502    0 -0.00000000000E+00 -0.00000000000E+00 -0.11967790358E+04  0.11967790358E+04  0.00000000000E+00 0. -1.
         24    2    1    2    0    0 -0.53126594007E+02  0.13558175555E+03 -0.40498677971E+03  0.43716497847E+03  0.76772906846E+02 0.  0.
         25    2    1    2    0    0 -0.83660267820E+02  0.16612846031E+03  0.71324515359E+03  0.74762410477E+03  0.12500178867E+03 0.  0.
         24    2    1    2    0    0 -0.41028765544E+02 -0.95136587444E+02 -0.10326597182E+03  0.16499154903E+03  0.76315270049E+02 0.  0.
        -13    1    3    3    0    0 -0.20561025239E+02  0.12001759799E+03 -0.25062218312E+03  0.27863678555E+03  0.00000000000E+00 0.  1.
         14    1    3    3    0    0 -0.32565568768E+02  0.15564157561E+02 -0.15436459659E+03  0.15852819292E+03  0.00000000000E+00 0. -1.
        -13    1    5    5    0    0  0.11945629698E+02 -0.37344794404E+02 -0.69150167993E+02  0.79492625265E+02  0.00000000000E+00 0.  1.
         14    1    5    5    0    0 -0.52974395242E+02 -0.57791793040E+02 -0.34115803822E+02  0.85498923762E+02  0.00000000000E+00 0. -1.
          5    1    4    4  501    0 -0.31761426202E+02  0.53060345000E+02  0.47288302222E+03  0.47693252259E+03  0.47000000000E+01 0. -1.
         -5    1    4    4    0  501 -0.51898841618E+02  0.11306811531E+03  0.24036213138E+03  0.27069158218E+03  0.47000000000E+01 0. -1.
          1    1    1    2  502    0  0.14048117721E+03 -0.13911987004E+03 -0.60797726046E+03  0.63931654806E+03  0.00000000000E+00 0. -1.
          1    1    1    2  503    0  0.37334450161E+02 -0.67453758380E+02  0.20127235869E+04  0.20141996197E+04  0.00000000000E+00 0. -1.
<mgrwt>
<rscale>  0 0.11484768E+03</rscale>
<asrwt>0</asrwt>
<pdfrwt beam="1">  1        2 0.41272320E+00 0.77096502E+02</pdfrwt>
<pdfrwt beam="2">  1        2 0.17599692E+00 0.17108415E+03</pdfrwt>
<totfact> 0.13111782E+01</totfact>
</mgrwt>
</event>
<event>
13    1  0.2101801E-008  0.2091258E+03  0.7546771E-02  0.1327782E+00
          4   -1    0    0  503    0 -0.00000000000E+00  0.00000000000E+00  0.16224406799E+04  0.16224406799E+04  0.00000000000E+00 0. -1.
          2   -1    0    0  502    0  0.00000000000E+00 -0.00000000000E+00 -0.86741523674E+03  0.86741523674E+03  0.00000000000E+00 0. -1.
         24    2    1    2    0    0 -0.10259484214E+03  0.64113136992E+02  0.13382471322E+03  0.19626312489E+03  0.77291424828E+02 0.  0.
         25    2    1    2    0    0  0.22370505480E+03 -0.39353002884E+02 -0.39779229997E+03  0.47481939938E+03  0.12498855041E+03 0.  0.
         24    2    1    2    0    0  0.37561034781E+02 -0.10859483359E+03 -0.79277344781E+01  0.15700556688E+03  0.10669690643E+03 0.  0.
        -11    1    5    5    0    0 -0.25387284001E+02 -0.69645584142E+02 -0.29683774925E+02  0.79850786303E+02  0.00000000000E+00 0.  1.
         12    1    5    5    0    0  0.62948318782E+02 -0.38949249445E+02  0.21756040447E+02  0.77154780576E+02  0.00000000000E+00 0. -1.
        -11    1    3    3    0    0 -0.88945351184E+02  0.41853546083E+02  0.53744241545E+02  0.11203320185E+03  0.00000000000E+00 0.  1.
         12    1    3    3    0    0 -0.13649490957E+02  0.22259590909E+02  0.80080471679E+02  0.84229923039E+02  0.00000000000E+00 0. -1.
          5    1    4    4  501    0 -0.35658934754E+01 -0.28119644162E+02 -0.25223445072E+02  0.38232736828E+02  0.47000000000E+01 0. -1.
         -5    1    4    4    0  501  0.22727094827E+03 -0.11233358722E+02 -0.37256885490E+03  0.43658666255E+03  0.47000000000E+01 0. -1.
          1    1    1    2  502    0  0.17322221200E+02 -0.25646133785E+02 -0.30865612118E+03  0.31020377926E+03  0.00000000000E+00 0. -1.
          3    1    1    2  503    0 -0.17599346864E+03  0.10948083326E+03  0.13355768856E+04  0.13515640463E+04  0.00000000000E+00 0. -1.
<mgrwt>
<rscale>  0 0.80449001E+02</rscale>
<asrwt>0</asrwt>
<pdfrwt beam="2">  1        2 0.12756106E+00 0.30948078E+02</pdfrwt>
<pdfrwt beam="1">  1        4 0.23859422E+00 0.20912581E+03</pdfrwt>
<totfact> 0.16354479E+00</totfact>
</mgrwt>
</event>
<event>
13    1  0.2101801E-008  0.6025330E+02  0.7546771E-02  0.1522451E+00
          2   -1    0    0  502    0  0.00000000000E+00  0.00000000000E+00  0.25106829638E+04  0.25106829638E+04  0.00000000000E+00 0. -1.
          2   -1    0    0  503    0 -0.00000000000E+00 -0.00000000000E+00 -0.14258697943E+04  0.14258697943E+04  0.00000000000E+00 0. -1.
         24    2    1    2    0    0  0.19341926869E+02 -0.98632721480E+02 -0.50442655454E+03  0.52086540391E+03  0.82171139639E+02 0.  0.
         25    2    1    2    0    0 -0.28442295336E+02  0.21251372984E+03  0.10603371139E+04  0.10889963458E+04  0.12500878561E+03 0.  0.
         24    2    1    2    0    0 -0.20217167058E+02 -0.58364604687E+02  0.22538658461E+02  0.10087188368E+03  0.76498267092E+02 0.  0.
        -11    1    5    5    0    0 -0.15657470685E+02  0.14199724360E+02  0.18437761317E+02  0.28048878811E+02  0.00000000000E+00 0.  1.
         12    1    5    5    0    0 -0.45596963728E+01 -0.72564329047E+02  0.41008971443E+01  0.72823004871E+02  0.00000000000E+00 0. -1.
        -13    1    3    3    0    0 -0.27448154640E+02 -0.14131060491E+02 -0.16951227698E+03  0.17230060972E+03  0.00000000000E+00 0.  1.
         14    1    3    3    0    0  0.46790081509E+02 -0.84501660989E+02 -0.33491427756E+03  0.34856479419E+03  0.00000000000E+00 0. -1.
          5    1    4    4  501    0  0.29273620760E+02  0.78557799589E+02  0.20890741721E+03  0.22515033137E+03  0.47000000000E+01 0. -1.
         -5    1    4    4    0  501 -0.57715916096E+02  0.13395593025E+03  0.85142969667E+03  0.86384601440E+03  0.47000000000E+01 0. -1.
          1    1    1    2  502    0  0.46384585580E+02 -0.38460990363E+02  0.13652575891E+04  0.13665866464E+04  0.00000000000E+00 0. -1.
          1    1    1    2  503    0 -0.17067050055E+02 -0.17055413307E+02 -0.85889363740E+03  0.85923247825E+03  0.00000000000E+00 0. -1.
<mgrwt>
<rscale>  0 0.38128799E+02</rscale>
<asrwt>0</asrwt>
<pdfrwt beam="1">  1        2 0.36921808E+00 0.60253300E+02</pdfrwt>
<pdfrwt beam="2">  1        2 0.20968673E+00 0.24128227E+02</pdfrwt>
<totfact> 0.16776214E+01</totfact>
</mgrwt>
</event>
<event>
13    1  0.2101801E-008  0.2191318E+03  0.7546771E-02  0.1143345E+00
          2   -1    0    0  502    0  0.00000000000E+00  0.00000000000E+00  0.38464864448E+04  0.38464864448E+04  0.00000000000E+00 0. -1.
          2   -1    0    0  503    0 -0.00000000000E+00 -0.00000000000E+00 -0.21980237112E+04  0.21980237112E+04  0.00000000000E+00 0. -1.
         24    2    1    2    0    0  0.27934541136E+02  0.76411187501E+03 -0.16727850610E+03  0.78719456646E+03  0.83939804215E+02 0.  0.
         25    2    1    2    0    0 -0.39835150078E+01 -0.81599861002E+03  0.28181874769E+03  0.87230428122E+03  0.12499340997E+03 0.  0.
         24    2    1    2    0    0 -0.26549707853E+03  0.35478884804E+03  0.20396662067E+03  0.49439435781E+03  0.80371470583E+02 0.  0.
        -13    1    5    5    0    0 -0.97276389970E+02  0.12002223813E+03  0.11363450270E+03  0.19178329931E+03  0.00000000000E+00 0.  1.
         14    1    5    5    0    0 -0.16822068856E+03  0.23476660990E+03  0.90332117975E+02  0.30261105850E+03  0.00000000000E+00 0. -1.
        -13    1    3    3    0    0  0.47016447222E+02  0.23563355143E+03 -0.45965459158E+02  0.24463552544E+03  0.00000000000E+00 0.  1.
         14    1    3    3    0    0 -0.19081906085E+02  0.52847832358E+03 -0.12131304694E+03  0.54255904102E+03  0.00000000000E+00 0. -1.
          5    1    4    4  501    0  0.52669010958E+02 -0.20723124123E+03  0.63878173583E+02  0.22320690652E+03  0.47000000000E+01 0. -1.
         -5    1    4    4    0  501 -0.56652525966E+02 -0.60876736878E+03  0.21794057410E+03  0.64909737469E+03  0.47000000000E+01 0. -1.
          1    1    1    2  502    0  0.17184972372E+03 -0.96304638916E+02  0.25972464776E+04  0.26047065433E+04  0.00000000000E+00 0. -1.
          1    1    1    2  503    0  0.69696328687E+02 -0.20659747411E+03 -0.12672906063E+04  0.12859104072E+04  0.00000000000E+00 0. -1.
<mgrwt>
<rscale>  0 0.20776864E+03</rscale>
<asrwt>0</asrwt>
<pdfrwt beam="1">  1        2 0.56565977E+00 0.19699470E+03</pdfrwt>
<pdfrwt beam="2">  1        2 0.32323878E+00 0.21913183E+03</pdfrwt>
<totfact> 0.86078007E-01</totfact>
</mgrwt>
</event>
<event>
13    1  0.2101801E-008  0.1046894E+03  0.7546771E-02  0.1304026E+00
          2   -1    0    0  503    0  0.00000000000E+00  0.00000000000E+00  0.22022067998E+04  0.22022067998E+04  0.00000000000E+00 0. -1.
          2   -1    0    0  502    0 -0.00000000000E+00 -0.00000000000E+00 -0.42406046564E+04  0.42406046564E+04  0.00000000000E+00 0. -1.
         24    2    1    2    0    0 -0.24018049614E+02  0.12509894596E+02 -0.51568470496E+03  0.52302718372E+03  0.83026235708E+02 0.  0.
         25    2    1    2    0    0 -0.17675912200E+03 -0.27320517879E+03  0.36382386147E+03  0.50386420230E+03  0.12500590091E+03 0.  0.
         24    2    1    2    0    0  0.57052976026E+02  0.15590445863E+03  0.41263040312E+03  0.45227229724E+03  0.82006944670E+02 0.  0.
        -11    1    3    3    0    0  0.46920812701E+01 -0.25363422305E+02 -0.66369820992E+02  0.71205842149E+02  0.00000000000E+00 0.  1.
         12    1    3    3    0    0 -0.28710130884E+02  0.37873316901E+02 -0.44931488397E+03  0.45182134157E+03  0.00000000000E+00 0. -1.
        -13    1    5    5    0    0 -0.15468962830E+01  0.76174905723E+02  0.10948220583E+03  0.13338426648E+03  0.00000000000E+00 0.  1.
         14    1    5    5    0    0  0.58599872309E+02  0.79729552903E+02  0.30314819729E+03  0.31888803076E+03  0.00000000000E+00 0. -1.
          5    1    4    4  501    0 -0.89438703495E+02 -0.23731538639E+03  0.27567629876E+03  0.37461631839E+03  0.47000000000E+01 0. -1.
         -5    1    4    4    0  501 -0.87320418506E+02 -0.35889792400E+02  0.88147562704E+02  0.12924788392E+03  0.47000000000E+01 0. -1.
          1    1    1    2  502    0  0.50648070368E+02  0.57390155901E+02 -0.36289560991E+04  0.36297632466E+04  0.00000000000E+00 0. -1.
          1    1    1    2  503    0  0.93076125221E+02  0.47400669669E+02  0.13297886829E+04  0.13338845264E+04  0.00000000000E+00 0. -1.
<mgrwt>
<rscale>  0 0.89516808E+02</rscale>
<asrwt>0</asrwt>
<pdfrwt beam="1">  1        2 0.32385394E+00 0.10468940E+03</pdfrwt>
<pdfrwt beam="2">  1        2 0.62361833E+00 0.76543171E+02</pdfrwt>
<totfact> 0.60463962E-01</totfact>
</mgrwt>
</event>
<event>
13    1  0.2101801E-008  0.7761982E+02  0.7546771E-02  0.1341093E+00
          2   -1    0    0  503    0  0.00000000000E+00  0.00000000000E+00  0.28921324140E+03  0.28921324140E+03  0.00000000000E+00 0. -1.
         -1   -1    0    0    0  501 -0.00000000000E+00 -0.00000000000E+00 -0.73233025906E+03  0.73233025906E+03  0.00000000000E+00 0.  1.
         24    2    1    2    0    0  0.21834894944E+02 -0.46520291090E+02 -0.29480380992E+03  0.31003009124E+03  0.81046104211E+02 0.  0.
         25    2    1    2    0    0 -0.19326585641E+02 -0.43418387062E+02  0.84325920250E+02  0.15809874929E+03  0.12500272178E+03 0.  0.
         24    2    1    2    0    0  0.83685460449E+01  0.58312539636E+02 -0.59207383213E+02  0.11592340160E+03  0.80388655724E+02 0.  0.
        -11    1    5    5    0    0  0.29167373168E+01  0.66619585374E+02 -0.73033800722E+02  0.98896979529E+02  0.00000000000E+00 0.  1.
         12    1    5    5    0    0  0.54518087281E+01 -0.83070457378E+01  0.13826417509E+02  0.17026422068E+02  0.00000000000E+00 0. -1.
        -13    1    3    3    0    0 -0.17316289156E+02 -0.39203919576E+02 -0.23004692356E+03  0.23400510298E+03  0.00000000000E+00 0.  1.
         14    1    3    3    0    0  0.39151184101E+02 -0.73163715149E+01 -0.64756886366E+02  0.76024988263E+02  0.00000000000E+00 0. -1.
          5    1    4    4  502    0 -0.42167364776E+02 -0.24209520146E+02  0.10877032835E+03  0.11923615999E+03  0.47000000000E+01 0.  1.
         -5    1    4    4    0  502  0.22840779135E+02 -0.19208866915E+02 -0.24444408104E+02  0.38862589302E+02  0.47000000000E+01 0.  1.
          1    1    1    2  503    0  0.68881604158E+02  0.27658175131E+02  0.11573922482E+03  0.13749624796E+03  0.00000000000E+00 0. -1.
         -2    1    1    2    0  501 -0.79758459506E+02  0.39679633848E+01 -0.28917096958E+03  0.29999501037E+03  0.00000000000E+00 0.  1.
<mgrwt>
<rscale>  0 0.75904464E+02</rscale>
<asrwt>0</asrwt>
<pdfrwt beam="1">  1        2 0.42531359E-01 0.74227017E+02</pdfrwt>
<pdfrwt beam="2">  1       -1 0.10769563E+00 0.77619819E+02</pdfrwt>
<totfact> 0.12258744E+02</totfact>
</mgrwt>
</event>
<event>
13    1  0.2720469E-008  0.2569566E+03  0.7546771E-02  0.1151213E+00
         -1   -1    0    0    0  501 -0.00000000000E+00  0.00000000000E+00  0.28359326129E+04  0.28359326129E+04  0.00000000000E+00 0.  1.
          2   -1    0    0  503    0  0.00000000000E+00 -0.00000000000E+00 -0.95745398458E+03  0.95745398458E+03  0.00000000000E+00 0. -1.
         24    2    1    2    0    0 -0.27794624532E+02  0.22223909146E+03  0.14313607835E+04  0.14509132688E+04  0.78694764915E+02 0.  0.
         25    2    1    2    0    0 -0.85428911844E+02 -0.42691864345E+02  0.23245773486E+03  0.28068206293E+03  0.12500051077E+03 0.  0.
         24    2    1    2    0    0  0.87320948463E+01 -0.64978681256E+02 -0.73731798379E+03  0.74456229311E+03  0.80229175486E+02 0.  0.
        -11    1    3    3    0    0 -0.19338088832E+02  0.12208810338E+03  0.10195011457E+04  0.10269674059E+04  0.00000000000E+00 0.  1.
         12    1    3    3    0    0 -0.84565357004E+01  0.10015098807E+03  0.41185963782E+03  0.42394586290E+03  0.00000000000E+00 0. -1.
        -11    1    5    5    0    0 -0.24691600742E+02 -0.18722830396E+02 -0.99919172277E+02  0.10461386387E+03  0.00000000000E+00 0.  1.
         12    1    5    5    0    0  0.33423695588E+02 -0.46255850860E+02 -0.63739881151E+03  0.63994842924E+03  0.00000000000E+00 0. -1.
          5    1    4    4  502    0 -0.90168648530E+01  0.41947249507E+02  0.65814679629E+02  0.78705385125E+02  0.47000000000E+01 0. -1.
         -5    1    4    4    0  502 -0.76412046991E+02 -0.84639113852E+02  0.16664305523E+03  0.20197667780E+03  0.47000000000E+01 0. -1.
          1    1    1    2  503    0  0.17603120649E+03  0.18116755170E+03 -0.60728998727E+02  0.25980122927E+03  0.00000000000E+00 0. -1.
         -2    1    1    2    0  501 -0.71539764961E+02 -0.29573609755E+03  0.10127070925E+04  0.10574277434E+04  0.00000000000E+00 0.  1.
<mgrwt>
<rscale>  0 0.19826230E+03</rscale>
<asrwt>0</asrwt>
<pdfrwt beam="2">  1        2 0.14080206E+00 0.15297500E+03</pdfrwt>
<pdfrwt beam="1">  1       -1 0.41704891E+00 0.25695663E+03</pdfrwt>
<totfact> 0.23986055E-01</totfact>
</mgrwt>
</event>
<event>
13    1  0.2101801E-008  0.6448209E+02  0.7546771E-02  0.1455195E+00
          2   -1    0    0  503    0  0.00000000000E+00  0.00000000000E+00  0.24415968525E+04  0.24415968525E+04  0.00000000000E+00 0. -1.
          2   -1    0    0  502    0 -0.00000000000E+00 -0.00000000000E+00 -0.39279662976E+04  0.39279662976E+04  0.00000000000E+00 0. -1.
         24    2    1    2    0    0  0.49930043263E+03  0.12089478586E+04 -0.12126313823E+04  0.17854582463E+04  0.80811094583E+02 0.  0.
         25    2    1    2    0    0  0.70444181658E+03 -0.51120774887E+03  0.22445093194E+03  0.90751089605E+03  0.12500468056E+03 0.  0.
         24    2    1    2    0    0 -0.12963248350E+04 -0.73679568086E+03  0.12401828618E+03  0.14982627392E+04  0.78004789879E+02 0.  0.
        -11    1    3    3    0    0  0.26670580003E+03  0.55043036976E+03 -0.54256189857E+03  0.81760564425E+03  0.00000000000E+00 0.  1.
         12    1    3    3    0    0  0.23259463260E+03  0.65851748884E+03 -0.67006948376E+03  0.96785260205E+03  0.00000000000E+00 0. -1.
        -13    1    5    5    0    0 -0.84248481637E+03 -0.44032780236E+03  0.62009183695E+02  0.95263549073E+03  0.00000000000E+00 0.  1.
         14    1    5    5    0    0 -0.45384001859E+03 -0.29646787851E+03  0.62009102482E+02  0.54562724845E+03  0.00000000000E+00 0. -1.
          5    1    4    4  501    0  0.15298652870E+03 -0.61442861838E+02  0.70799056609E+02  0.17948453875E+03  0.47000000000E+01 0. -1.
         -5    1    4    4    0  501  0.55145528788E+03 -0.44976488703E+03  0.15365187533E+03  0.72802635730E+03  0.47000000000E+01 0. -1.
          1    1    1    2  502    0  0.33706576251E+02  0.12804788431E+02 -0.13987013342E+04  0.13991660081E+04  0.00000000000E+00 0. -1.
          1    1    1    2  503    0  0.58876009500E+02  0.26250782696E+02  0.77649405336E+03  0.77916526038E+03  0.00000000000E+00 0. -1.
<mgrwt>
<rscale>  0 0.48218466E+02</rscale>
<asrwt>0</asrwt>
<pdfrwt beam="1">  1        2 0.35905836E+00 0.64482087E+02</pdfrwt>
<pdfrwt beam="2">  1        2 0.57764210E+00 0.36056842E+02</pdfrwt>
<totfact> 0.94868609E-01</totfact>
</mgrwt>
</event>
<event>
13    1  0.2101801E-008  0.1052205E+03  0.7546771E-02  0.1317240E+00
          2   -1    0    0  502    0  0.00000000000E+00  0.00000000000E+00  0.14051680263E+04  0.14051680263E+04  0.00000000000E+00 0. -1.
          2   -1    0    0  503    0 -0.00000000000E+00 -0.00000000000E+00 -0.96219551196E+03  0.96219551196E+03  0.00000000000E+00 0. -1.
         24    2    1    2    0    0 -0.11650125103E+02 -0.44931161837E+02 -0.15312580286E+03  0.17925649572E+03  0.80813643885E+02 0.  0.
         25    2    1    2    0    0  0.62992755479E+02  0.20412410245E+02  0.57133102108E+03  0.58858223247E+03  0.12500061999E+03 0.  0.
         24    2    1    2    0    0  0.29647472091E+02 -0.23388097409E+02  0.26351018189E+02  0.90789557574E+02  0.78245714919E+02 0.  0.
        -11    1    3    3    0    0 -0.39390653344E+02  0.68431286586E-01 -0.53031478970E+02  0.66060321036E+02  0.00000000000E+00 0.  1.
         12    1    3    3    0    0  0.27740528241E+02 -0.44999593123E+02 -0.10009432389E+03  0.11319617468E+03  0.00000000000E+00 0. -1.
        -13    1    5    5    0    0  0.38206433612E+02 -0.47475605764E+02  0.14650817427E+02  0.62676240819E+02  0.00000000000E+00 0.  1.
         14    1    5    5    0    0 -0.85589615209E+01  0.24087508355E+02  0.11700200762E+02  0.28113316755E+02  0.00000000000E+00 0. -1.
          5    1    4    4  501    0  0.77582718765E+02  0.57100265899E+02  0.32310962682E+03  0.33719644061E+03  0.47000000000E+01 0. -1.
         -5    1    4    4    0  501 -0.14589963286E+02 -0.36687855654E+02  0.24822139426E+03  0.25138579186E+03  0.47000000000E+01 0. -1.
          1    1    1    2  502    0 -0.13464672401E+03  0.68553435714E+01  0.74601017679E+03  0.75809492803E+03  0.00000000000E+00 0. -1.
          1    1    1    2  503    0  0.53656621540E+02  0.41051505429E+02 -0.74759389886E+03  0.75064032449E+03  0.00000000000E+00 0. -1.
<mgrwt>
<rscale>  0 0.84312633E+02</rscale>
<asrwt>0</asrwt>
<pdfrwt beam="1">  1        2 0.20664236E+00 0.10522045E+03</pdfrwt>
<pdfrwt beam="2">  1        2 0.14149934E+00 0.67559301E+02</pdfrwt>
<totfact> 0.87166578E+01</totfact>
</mgrwt>
</event>
<event>
13    1  0.2101801E-008  0.1182870E+03  0.7546771E-02  0.1294359E+00
          2   -1    0    0  503    0  0.00000000000E+00  0.00000000000E+00  0.11663922318E+04  0.11663922318E+04  0.00000000000E+00 0. -1.
          2   -1    0    0  502    0 -0.00000000000E+00 -0.00000000000E+00 -0.27830569156E+04  0.27830569156E+04  0.00000000000E+00 0. -1.
         24    2    1    2    0    0 -0.50875425970E+01  0.86840158971E+02 -0.27652344235E+03  0.30047535196E+03  0.79076713802E+02 0.  0.
         25    2    1    2    0    0 -0.12739089589E+03  0.85450467155E+01 -0.67084610159E+03  0.69423218085E+03  0.12498948244E+03 0.  0.
         24    2    1    2    0    0  0.46957049900E+01 -0.24081618776E+02  0.23450861973E+03  0.24893195284E+03  0.79817607125E+02 0.  0.
        -11    1    5    5    0    0  0.16736161369E+02 -0.27145162260E+02  0.29172445663E+02  0.43220255870E+02  0.00000000000E+00 0.  1.
         12    1    5    5    0    0 -0.12040456379E+02  0.30635434839E+01  0.20533617407E+03  0.20571169697E+03  0.00000000000E+00 0. -1.
        -13    1    3    3    0    0 -0.22385440306E+02  0.17312875524E+02 -0.16844570487E+03  0.17080632039E+03  0.00000000000E+00 0.  1.
         14    1    3    3    0    0  0.17297897709E+02  0.69527283447E+02 -0.10807773748E+03  0.12966903156E+03  0.00000000000E+00 0. -1.
          5    1    4    4  501    0 -0.27321300231E+02 -0.43805495461E+02 -0.10374828952E+03  0.11597918976E+03  0.47000000000E+01 0. -1.
         -5    1    4    4    0  501 -0.10006959566E+03  0.52350542177E+02 -0.56709781208E+03  0.57825299109E+03  0.47000000000E+01 0. -1.
          1    1    1    2  502    0  0.50514274894E+02  0.54167894361E+02 -0.17980143501E+04  0.17995392343E+04  0.00000000000E+00 0. -1.
          1    1    1    2  503    0  0.77268458604E+02 -0.12547148127E+03  0.89421059060E+03  0.90627042744E+03  0.00000000000E+00 0. -1.
<mgrwt>
<rscale>  0 0.93600806E+02</rscale>
<asrwt>0</asrwt>
<pdfrwt beam="1">  1        2 0.17152827E+00 0.11828702E+03</pdfrwt>
<pdfrwt beam="2">  1        2 0.40927307E+00 0.74066543E+02</pdfrwt>
<totfact> 0.14384438E+01</totfact>
</mgrwt>
</event>
<event>
13    1  0.2101801E-008  0.7676348E+02  0.7546771E-02  0.1413420E+00
          2   -1    0    0  502    0  0.00000000000E+00  0.00000000000E+00  0.39471296358E+04  0.39471296358E+04  0.00000000000E+00 0. -1.
          2   -1    0    0  503    0 -0.00000000000E+00 -0.00000000000E+00 -0.51594171869E+03  0.51594171869E+03  0.00000000000E+00 0. -1.
         24    2    1    2    0    0 -0.21226124277E+03 -0.22325143486E+03 -0.12425902637E+02  0.32200606747E+03  0.92937968996E+02 0.  0.
         25    2    1    2    0    0  0.44036436856E+03  0.37031594823E+03  0.18032270340E+04  0.18969205034E+04  0.12499992517E+03 0.  0.
         24    2    1    2    0    0 -0.26164795580E+03 -0.18621511301E+03  0.15321103202E+03  0.36417309011E+03  0.77541589716E+02 0.  0.
        -11    1    3    3    0    0 -0.61990242231E+02 -0.11883842226E+03  0.21949796116E+02  0.13582030145E+03  0.00000000000E+00 0.  1.
         12    1    3    3    0    0 -0.15027100054E+03 -0.10441301261E+03 -0.34375698753E+02  0.18618576602E+03  0.00000000000E+00 0. -1.
        -13    1    5    5    0    0 -0.95360131316E+02 -0.41272458183E+02  0.18041274004E+02  0.10546306470E+03  0.00000000000E+00 0.  1.
         14    1    5    5    0    0 -0.16628782448E+03 -0.14494265483E+03  0.13516975802E+03  0.25871002540E+03  0.00000000000E+00 0. -1.
          5    1    4    4  501    0  0.32975917301E+03  0.22055940849E+03  0.10966266022E+04  0.11661901902E+04  0.47000000000E+01 0.  1.
         -5    1    4    4    0  501  0.11060519555E+03  0.14975653974E+03  0.70660043176E+03  0.73073031321E+03  0.47000000000E+01 0.  1.
          1    1    1    2  502    0  0.13741137883E+02  0.75613631656E+02  0.16804940467E+04  0.16822504217E+04  0.00000000000E+00 0. -1.
          1    1    1    2  503    0  0.19803692124E+02 -0.36463032002E+02 -0.19331829302E+03  0.19772127185E+03  0.00000000000E+00 0. -1.
<mgrwt>
<rscale>  0 0.56437680E+02</rscale>
<asrwt>0</asrwt>
<pdfrwt beam="1">  1        2 0.58046023E+00 0.76763480E+02</pdfrwt>
<pdfrwt beam="2">  1        2 0.75873784E-01 0.41493842E+02</pdfrwt>
<totfact> 0.85234237E+00</totfact>
</mgrwt>
</event>
<event>
13    1  0.2101801E-008  0.1407382E+03  0.7546771E-02  0.1267386E+00
          2   -1    0    0  502    0  0.00000000000E+00  0.00000000000E+00  0.31123045387E+04  0.31123045387E+04  0.00000000000E+00 0. -1.
          2   -1    0    0  503    0 -0.00000000000E+00 -0.00000000000E+00 -0.23354124115E+04  0.23354124115E+04  0.00000000000E+00 0. -1.
         24    2    1    2    0    0 -0.75002705389E+02  0.14539197100E+02 -0.26826646459E+02  0.11468777993E+03  0.81220833764E+02 0.  0.
         25    2    1    2    0    0  0.27154318349E+03  0.18763973729E+03 -0.81098219840E+02  0.36214217080E+03  0.12500263635E+03 0.  0.
         24    2    1    2    0    0 -0.22100934853E+02 -0.10772223176E+03  0.21708599131E+03  0.25992008809E+03  0.91321377729E+02 0.  0.
        -11    1    3    3    0    0  0.14542888837E+02 -0.10586643685E+02 -0.36159094782E+00  0.17991758898E+02  0.00000000000E+00 0.  1.
         12    1    3    3    0    0 -0.89545594226E+02  0.25125840786E+02 -0.26465055511E+02  0.96696021033E+02  0.00000000000E+00 0. -1.
        -11    1    5    5    0    0 -0.47846327661E+01 -0.11871863911E+03  0.20238168557E+03  0.23468138963E+03  0.00000000000E+00 0.  1.
         12    1    5    5    0    0 -0.17316302087E+02  0.10996407350E+02  0.14704305741E+02  0.25238698459E+02  0.00000000000E+00 0. -1.
          5    1    4    4  501    0  0.12771727249E+03  0.15863686117E+02 -0.26049928916E+02  0.13139272060E+03  0.47000000000E+01 0.  1.
         -5    1    4    4    0  501  0.14382591100E+03  0.17177605117E+03 -0.55048290923E+02  0.23074945020E+03  0.47000000000E+01 0.  1.
          1    1    1    2  502    0 -0.94499883413E+02 -0.10341003970E+03  0.26867233048E+04  0.26903728330E+04  0.00000000000E+00 0. -1.
          1    1    1    2  503    0 -0.79939659839E+02  0.89533370667E+01 -0.20189923026E+04  0.20205940783E+04  0.00000000000E+00 0. -1.
<mgrwt>
<rscale>  0 0.10639977E+03</rscale>
<asrwt>0</asrwt>
<pdfrwt beam="1">  1        2 0.45769184E+00 0.14073824E+03</pdfrwt>
<pdfrwt beam="2">  1        2 0.34344300E+00 0.80439489E+02</pdfrwt>
<totfact> 0.24055990E+00</totfact>
</mgrwt>
</event>
<event>
13    1  0.2101801E-008  0.4786407E+02  0.7546771E-02  0.1465812E+00
          2   -1    0    0  502    0  0.00000000000E+00  0.00000000000E+00  0.14194881847E+04  0.14194881847E+04  0.00000000000E+00 0. -1.
          2   -1    0    0  503    0 -0.00000000000E+00 -0.00000000000E+00 -0.58069352956E+03  0.58069352956E+03  0.00000000000E+00 0. -1.
         24    2    1    2    0    0  0.72708400799E+02 -0.31341176333E+02 -0.26688976080E+03  0.29446599687E+03  0.95975507380E+02 0.  0.
         25    2    1    2    0    0 -0.51216939372E+02 -0.28250346173E+02  0.36863354205E+03  0.39362203492E+03  0.12500544432E+03 0.  0.
         24    2    1    2    0    0 -0.68956667188E+02  0.83215450607E+02  0.19892471526E+02  0.13431106534E+03  0.77226411795E+02 0.  0.
        -11    1    3    3    0    0  0.96065470421E+01  0.22754109086E+02 -0.14270851629E+02  0.28525294610E+02  0.00000000000E+00 0.  1.
         12    1    3    3    0    0  0.63101853757E+02 -0.54095285419E+02 -0.25261890917E+03  0.26594070226E+03  0.00000000000E+00 0. -1.
        -11    1    5    5    0    0 -0.10262280920E+02  0.46335354181E+02 -0.23058927155E+02  0.52763562980E+02  0.00000000000E+00 0.  1.
         12    1    5    5    0    0 -0.58694386268E+02  0.36880096426E+02  0.42951398682E+02  0.81547502356E+02  0.00000000000E+00 0. -1.
          5    1    4    4  501    0  0.99015121327E+01 -0.22566987403E+02  0.30147479119E+03  0.30251685669E+03  0.47000000000E+01 0.  1.
         -5    1    4    4    0  501 -0.61118451504E+02 -0.56833587698E+01  0.67158750863E+02  0.91105178221E+02  0.47000000000E+01 0.  1.
          1    1    1    2  502    0  0.90613218891E+01 -0.47026127682E+02  0.94466270854E+03  0.94587588887E+03  0.00000000000E+00 0. -1.
          1    1    1    2  503    0  0.38403883872E+02  0.23402199580E+02 -0.22750430622E+03  0.23190672822E+03  0.00000000000E+00 0. -1.
<mgrwt>
<rscale>  0 0.46395738E+02</rscale>
<asrwt>0</asrwt>
<pdfrwt beam="1">  1        2 0.20874826E+00 0.47864070E+02</pdfrwt>
<pdfrwt beam="2">  1        2 0.85396108E-01 0.44972450E+02</pdfrwt>
<totfact> 0.16502398E+02</totfact>
</mgrwt>
</event>
<event>
13    1  0.2101801E-008  0.9232925E+02  0.7546771E-02  0.1396403E+00
          2   -1    0    0  503    0  0.00000000000E+00  0.00000000000E+00  0.19032962011E+04  0.19032962011E+04  0.00000000000E+00 0. -1.
          2   -1    0    0  502    0 -0.00000000000E+00 -0.00000000000E+00 -0.15002919610E+04  0.15002919610E+04  0.00000000000E+00 0. -1.
         24    2    1    2    0    0 -0.60991981054E+02 -0.25516599864E+02 -0.22035658300E+03  0.24397162741E+03  0.81203526345E+02 0.  0.
         25    2    1    2    0    0  0.10742917474E+03 -0.14467249648E+03  0.50334384747E+03  0.54904549937E+03  0.12499909107E+03 0.  0.
         24    2    1    2    0    0 -0.36789570105E+02  0.11789506018E+03 -0.51638696573E+03  0.53697327834E+03  0.80200284246E+02 0.  0.
        -11    1    5    5    0    0 -0.32529642060E+02  0.12536348061E+03 -0.51019609121E+03  0.52637841081E+03  0.00000000000E+00 0.  1.
         12    1    5    5    0    0 -0.42599280448E+01 -0.74684204292E+01 -0.61908745225E+01  0.10594867531E+02  0.00000000000E+00 0. -1.
        -13    1    3    3    0    0 -0.60733452070E+02  0.35040822128E+01 -0.79225699928E+02  0.99887648493E+02  0.00000000000E+00 0.  1.
         14    1    3    3    0    0 -0.25852898398E+00 -0.29020682076E+02 -0.14113088307E+03  0.14408397892E+03  0.00000000000E+00 0. -1.
          5    1    4    4  501    0  0.42411024138E+02 -0.73854804540E+01  0.32110615175E+02  0.53911240914E+02  0.47000000000E+01 0.  1.
         -5    1    4    4    0  501  0.65018150603E+02 -0.13728701603E+03  0.47123323229E+03  0.49513425845E+03  0.47000000000E+01 0.  1.
          1    1    1    2  502    0 -0.19839439507E+02  0.90390628534E+02 -0.71532869975E+03  0.72128996789E+03  0.00000000000E+00 0. -1.
          1    1    1    2  503    0  0.10191815925E+02 -0.38096592365E+02  0.13517326411E+04  0.13523077891E+04  0.00000000000E+00 0. -1.
<mgrwt>
<rscale>  0 0.60341744E+02</rscale>
<asrwt>0</asrwt>
<pdfrwt beam="1">  1        2 0.27989650E+00 0.39436322E+02</pdfrwt>
<pdfrwt beam="2">  1        2 0.22063117E+00 0.92329251E+02</pdfrwt>
<totfact> 0.28198185E+01</totfact>
</mgrwt>
</event>
<event>
13    1  0.2101801E-008  0.1483633E+03  0.7546771E-02  0.1358895E+00
          2   -1    0    0  503    0  0.00000000000E+00  0.00000000000E+00  0.94736226381E+03  0.94736226381E+03  0.00000000000E+00 0. -1.
          2   -1    0    0  502    0 -0.00000000000E+00 -0.00000000000E+00 -0.23346007205E+04  0.23346007205E+04  0.00000000000E+00 0. -1.
         24    2    1    2    0    0  0.71847716958E+02  0.25571725003E+02 -0.17453077816E+03  0.20672806531E+03  0.80370970569E+02 0.  0.
         25    2    1    2    0    0 -0.83548748156E+02 -0.14164784416E+03  0.45530917453E+02  0.21152279791E+03  0.12499729804E+03 0.  0.
         24    2    1    2    0    0 -0.13612973579E+03  0.10798641388E+03  0.46962862101E+02  0.19810975913E+03  0.82762284259E+02 0.  0.
        -13    1    3    3    0    0  0.37742863198E+01 -0.21086944676E+02 -0.71942633946E+02  0.75064286129E+02  0.00000000000E+00 0.  1.
         14    1    3    3    0    0  0.68073430638E+02  0.46658669679E+02 -0.10258814421E+03  0.13166377918E+03  0.00000000000E+00 0. -1.
        -13    1    5    5    0    0 -0.40884345738E+02  0.67466358675E+02 -0.10724870975E+02  0.79613203281E+02  0.00000000000E+00 0.  1.
         14    1    5    5    0    0 -0.95245390055E+02  0.40520055209E+02  0.57687733075E+02  0.11849655585E+03  0.00000000000E+00 0. -1.
          5    1    4    4  501    0 -0.10876603554E+03 -0.13548074885E+03  0.56780502434E+02  0.18284200626E+03  0.47000000000E+01 0. -1.
         -5    1    4    4    0  501  0.25217287383E+02 -0.61670953122E+01 -0.11249584981E+02  0.28680791653E+02  0.47000000000E+01 0. -1.
          1    1    1    2  502    0  0.14081052962E+03 -0.24524733324E+02 -0.19824183499E+04  0.19875642334E+04  0.00000000000E+00 0. -1.
          1    1    1    2  503    0  0.70202373687E+01  0.32614438601E+02  0.67721689178E+03  0.67803812862E+03  0.00000000000E+00 0. -1.
<mgrwt>
<rscale>  0 0.70353483E+02</rscale>
<asrwt>0</asrwt>
<pdfrwt beam="1">  1        2 0.13931798E+00 0.33361435E+02</pdfrwt>
<pdfrwt beam="2">  1        2 0.34332364E+00 0.14836330E+03</pdfrwt>
<totfact> 0.31075253E+01</totfact>
</mgrwt>
</event>
<event>
13    1  0.2101801E-008  0.8620452E+02  0.7546771E-02  0.1418773E+00
          2   -1    0    0  502    0  0.00000000000E+00  0.00000000000E+00  0.26376448066E+04  0.26376448066E+04  0.00000000000E+00 0. -1.
          2   -1    0    0  503    0 -0.00000000000E+00 -0.00000000000E+00 -0.48811551874E+03  0.48811551874E+03  0.00000000000E+00 0. -1.
         24    2    1    2    0    0  0.79502843107E+02 -0.24402083479E+02 -0.70250704233E+02  0.13422213703E+03  0.78512781658E+02 0.  0.
         25    2    1    2    0    0  0.12385402945E+01 -0.32858898853E+02  0.13668538553E+04  0.13729516850E+04  0.12500250546E+03 0.  0.
         24    2    1    2    0    0 -0.97984759836E+00  0.45140758397E+01  0.58837392911E+02  0.99392035508E+02  0.79972501123E+02 0.  0.
        -11    1    5    5    0    0 -0.37652176756E+02  0.15088498092E+02  0.39452506221E+02  0.56584886995E+02  0.00000000000E+00 0.  1.
         12    1    5    5    0    0  0.36672329158E+02 -0.10574422252E+02  0.19384886691E+02  0.42807148513E+02  0.00000000000E+00 0. -1.
        -13    1    3    3    0    0  0.51367548728E+02 -0.83399610443E+01 -0.84172235855E+02  0.98960321854E+02  0.00000000000E+00 0.  1.
         14    1    3    3    0    0  0.28135294379E+02 -0.16062122434E+02  0.13921531622E+02  0.35261815177E+02  0.00000000000E+00 0. -1.
          5    1    4    4  501    0 -0.11034684202E+02  0.46428554609E+02  0.43356156770E+03  0.43620533918E+03  0.47000000000E+01 0. -1.
         -5    1    4    4    0  501  0.12273224496E+02 -0.79287453463E+02  0.93329228762E+03  0.93674634584E+03  0.47000000000E+01 0. -1.
          1    1    1    2  502    0  0.79699211248E+01 -0.34543443106E+02  0.11457979628E+04  0.11463462569E+04  0.00000000000E+00 0. -1.
          1    1    1    2  503    0 -0.87731456928E+02  0.87290349599E+02 -0.35170921895E+03  0.37284821089E+03  0.00000000000E+00 0. -1.
<mgrwt>
<rscale>  0 0.55281381E+02</rscale>
<asrwt>0</asrwt>
<pdfrwt beam="1">  1        2 0.38788894E+00 0.35450939E+02</pdfrwt>
<pdfrwt beam="2">  1        2 0.71781695E-01 0.86204518E+02</pdfrwt>
<totfact> 0.54997299E+01</totfact>
</mgrwt>
</event>
<event>
13    1  0.2101801E-008  0.5005456E+02  0.7546771E-02  0.1464803E+00
          2   -1    0    0  502    0  0.00000000000E+00  0.00000000000E+00  0.17781473722E+04  0.17781473722E+04  0.00000000000E+00 0. -1.
          2   -1    0    0  503    0 -0.00000000000E+00 -0.00000000000E+00 -0.28147579275E+04  0.28147579275E+04  0.00000000000E+00 0. -1.
         24    2    1    2    0    0  0.44315242405E+03 -0.70906225678E+02 -0.17317472313E+04  0.17908069273E+04  0.81419984555E+02 0.  0.
         25    2    1    2    0    0 -0.37379526689E+03  0.76057498141E+02  0.25484453236E+02  0.40222052745E+03  0.12499700304E+03 0.  0.
         24    2    1    2    0    0 -0.79539975042E+02 -0.32615944214E+01 -0.15056264465E+03  0.18855650947E+03  0.80914780303E+02 0.  0.
        -11    1    3    3    0    0  0.41032768055E+03 -0.85837057270E+02 -0.15623377074E+04  0.16176019033E+04  0.00000000000E+00 0.  1.
         12    1    3    3    0    0  0.32824743498E+02  0.14930831591E+02 -0.16940952392E+03  0.17320502393E+03  0.00000000000E+00 0. -1.
        -13    1    5    5    0    0 -0.31316368911E+02  0.37925662509E+02 -0.54114885846E+02  0.73126545855E+02  0.00000000000E+00 0.  1.
         14    1    5    5    0    0 -0.48223606131E+02 -0.41187256931E+02 -0.96447758802E+02  0.11542996361E+03  0.00000000000E+00 0. -1.
          5    1    4    4  501    0 -0.27971297267E+03  0.11095949977E+03  0.18804226859E+02  0.30154111929E+03  0.47000000000E+01 0.  1.
         -5    1    4    4    0  501 -0.94082294221E+02 -0.34902001634E+02  0.66802263776E+01  0.10067940816E+03  0.47000000000E+01 0.  1.
          1    1    1    2  502    0 -0.31800606744E+02 -0.29414077709E+02  0.15145521959E+04  0.15151715483E+04  0.00000000000E+00 0. -1.
          1    1    1    2  503    0  0.41983424629E+02  0.27524399668E+02 -0.69433732848E+03  0.69614978722E+03  0.00000000000E+00 0. -1.
<mgrwt>
<rscale>  0 0.46564722E+02</rscale>
<asrwt>0</asrwt>
<pdfrwt beam="1">  1        2 0.26149226E+00 0.43318201E+02</pdfrwt>
<pdfrwt beam="2">  1        2 0.41393499E+00 0.50054556E+02</pdfrwt>
<totfact> 0.79565119E+00</totfact>
</mgrwt>
</event>
<event>
13    1  0.2101801E-008  0.1209494E+03  0.7546771E-02  0.1445947E+00
          2   -1    0    0  503    0  0.00000000000E+00  0.00000000000E+00  0.15906084030E+04  0.15906084030E+04  0.00000000000E+00 0. -1.
          2   -1    0    0  502    0 -0.00000000000E+00 -0.00000000000E+00 -0.30412845733E+04  0.30412845733E+04  0.00000000000E+00 0. -1.
         24    2    1    2    0    0  0.19635717419E+03 -0.30103144867E+03 -0.34889550145E+03  0.51258973968E+03  0.10883059017E+03 0.  0.
         25    2    1    2    0    0  0.43942829742E+03  0.19063410515E+01  0.86530919971E+02  0.46498519156E+03  0.12499106186E+03 0.  0.
         24    2    1    2    0    0 -0.65628883205E+03  0.20050515302E+03  0.62795798468E+03  0.93653751383E+03  0.10887578622E+03 0.  0.
        -13    1    3    3    0    0  0.25093721309E+02 -0.94670606775E+02 -0.46516406960E+02  0.10842506515E+03  0.00000000000E+00 0.  1.
         14    1    3    3    0    0  0.17126345288E+03 -0.20636084189E+03 -0.30237909448E+03  0.40416467453E+03  0.00000000000E+00 0. -1.
        -13    1    5    5    0    0 -0.37580336120E+03  0.10536447804E+03  0.28432461253E+03  0.48287713221E+03  0.00000000000E+00 0.  1.
         14    1    5    5    0    0 -0.28048547084E+03  0.95140674975E+02  0.34363337215E+03  0.45366038161E+03  0.00000000000E+00 0. -1.
          5    1    4    4  501    0  0.24077884812E+03 -0.40335615706E+02  0.23831374864E-02  0.24417924892E+03  0.47000000000E+01 0.  1.
         -5    1    4    4    0  501  0.19864944930E+03  0.42241956757E+02  0.86528536834E+02  0.22080594264E+03  0.47000000000E+01 0.  1.
          1    1    1    2  502    0  0.20686293988E+02  0.11919636694E+03 -0.22651752242E+04  0.22684035119E+04  0.00000000000E+00 0. -1.
          1    1    1    2  503    0 -0.18293354935E+00 -0.20576412343E+02  0.44890565067E+03  0.44937701923E+03  0.00000000000E+00 0. -1.
<mgrwt>
<rscale>  0 0.49887899E+02</rscale>
<asrwt>0</asrwt>
<pdfrwt beam="1">  1        2 0.23391300E+00 0.20577226E+02</pdfrwt>
<pdfrwt beam="2">  1        2 0.44724773E+00 0.12094937E+03</pdfrwt>
<totfact> 0.69255433E+00</totfact>
</mgrwt>
</event>
<event>
13    1  0.2720469E-008  0.1654170E+03  0.7546771E-02  0.1334981E+00
          2   -1    0    0  502    0  0.00000000000E+00  0.00000000000E+00  0.45285854689E+03  0.45285854689E+03  0.00000000000E+00 0. -1.
          2   -1    0    0  503    0 -0.00000000000E+00 -0.00000000000E+00 -0.17572784953E+04  0.17572784953E+04  0.00000000000E+00 0. -1.
         24    2    1    2    0    0  0.53088804212E+01  0.37549161976E+02 -0.97879599737E+02  0.13074934244E+03  0.77954157861E+02 0.  0.
         25    2    1    2    0    0 -0.21189470591E+03 -0.18015721518E+03 -0.79377294052E+03  0.85032586069E+03  0.12499039835E+03 0.  0.
         24    2    1    2    0    0 -0.31730253169E+02  0.37614051684E+02  0.38550811296E+02  0.10269437135E+03  0.81476027183E+02 0.  0.
        -11    1    5    5    0    0  0.22168123656E+02  0.27337413359E+02 -0.74693968235E+00  0.35203945723E+02  0.00000000000E+00 0.  1.
         12    1    5    5    0    0 -0.53898376825E+02  0.10276638325E+02  0.39297750978E+02  0.67490425629E+02  0.00000000000E+00 0. -1.
        -13    1    3    3    0    0 -0.23385711334E+02 -0.13829211521E+02 -0.38756227859E+02  0.47330579795E+02  0.00000000000E+00 0.  1.
         14    1    3    3    0    0  0.28694591755E+02  0.51378373497E+02 -0.59123371878E+02  0.83418762647E+02  0.00000000000E+00 0. -1.
          5    1    4    4  501    0 -0.15807694191E+03 -0.18138652990E+03 -0.71802608983E+03  0.75727996704E+03  0.47000000000E+01 0. -1.
         -5    1    4    4    0  501 -0.53817764000E+02  0.12293147183E+01 -0.75746850684E+02  0.93045893650E+02  0.47000000000E+01 0. -1.
          1    1    1    2  502    0  0.26295045386E+03  0.13223780765E+03  0.27280502624E+03  0.40131329569E+03  0.00000000000E+00 0. -1.
          1    1    1    2  503    0 -0.24634375205E+02 -0.27243806128E+02 -0.72412324574E+03  0.72505417207E+03  0.00000000000E+00 0. -1.
<mgrwt>
<rscale>  0 0.77946970E+02</rscale>
<asrwt>0</asrwt>
<pdfrwt beam="1">  1        2 0.66596845E-01 0.16541696E+03</pdfrwt>
<pdfrwt beam="2">  1        2 0.25842331E+00 0.36729789E+02</pdfrwt>
<totfact> 0.15082079E+02</totfact>
</mgrwt>
</event>
<event>
13    1  0.2101801E-008  0.1597337E+03  0.7546771E-02  0.1294035E+00
          2   -1    0    0  502    0  0.00000000000E+00  0.00000000000E+00  0.18330639858E+04  0.18330639858E+04  0.00000000000E+00 0. -1.
          2   -1    0    0  503    0 -0.00000000000E+00 -0.00000000000E+00 -0.29761918022E+04  0.29761918022E+04  0.00000000000E+00 0. -1.
         24    2    1    2    0    0  0.63136949925E+01  0.14055876928E+03 -0.13565521125E+04  0.13661244260E+04  0.79156066233E+02 0.  0.
         25    2    1    2    0    0  0.13433576158E+03  0.59061672838E+02 -0.35642442138E+03  0.40520693359E+03  0.12497964967E+03 0.  0.
         24    2    1    2    0    0  0.43470505842E+02  0.17590563642E+02 -0.10625050874E+02  0.87353516146E+02  0.72928953575E+02 0.  0.
        -11    1    3    3    0    0  0.72754456887E+01  0.44825847022E+02 -0.80840188805E+03  0.80967641763E+03  0.00000000000E+00 0.  1.
         12    1    3    3    0    0 -0.96175069623E+00  0.95732922258E+02 -0.54815022447E+03  0.55644800832E+03  0.00000000000E+00 0. -1.
        -11    1    5    5    0    0  0.35674529089E+01  0.39986993452E+02 -0.10880601004E+02  0.41594156366E+02  0.00000000000E+00 0.  1.
         12    1    5    5    0    0  0.39903052933E+02 -0.22396429810E+02  0.25555013008E+00  0.45759359780E+02  0.00000000000E+00 0. -1.
          5    1    4    4  501    0  0.22298385740E+02 -0.36024136404E+02 -0.11369166976E+03  0.12142010617E+03  0.47000000000E+01 0.  1.
         -5    1    4    4    0  501  0.11203737584E+03  0.95085809242E+02 -0.24273275163E+03  0.28378682742E+03  0.47000000000E+01 0.  1.
          1    1    1    2  502    0 -0.45252998175E+02 -0.31283790914E+02  0.17537259510E+04  0.17545886186E+04  0.00000000000E+00 0. -1.
          1    1    1    2  503    0 -0.13886696424E+03 -0.18592721485E+03 -0.11732521826E+04  0.11959822937E+04  0.00000000000E+00 0. -1.
<mgrwt>
<rscale>  0 0.93741897E+02</rscale>
<asrwt>0</asrwt>
<pdfrwt beam="1">  1        2 0.26956824E+00 0.55013720E+02</pdfrwt>
<pdfrwt beam="2">  1        2 0.43767526E+00 0.15973367E+03</pdfrwt>
<totfact> 0.50599855E+00</totfact>
</mgrwt>
</event>
<event>
13    1  0.2101801E-008  0.1697712E+03  0.7546771E-02  0.1323900E+00
          2   -1    0    0  503    0  0.00000000000E+00  0.00000000000E+00  0.16472025024E+03  0.16472025024E+03  0.00000000000E+00 0. -1.
          2   -1    0    0  502    0 -0.00000000000E+00 -0.00000000000E+00 -0.32791583197E+04  0.32791583197E+04  0.00000000000E+00 0. -1.
         24    2    1    2    0    0 -0.68126285652E+02 -0.27998732017E+02 -0.11968704622E+04  0.12019758384E+04  0.82594751328E+02 0.  0.
         25    2    1    2    0    0  0.22773297582E+02  0.71844499988E+02 -0.74736890532E+02  0.16398497759E+03  0.12500085922E+03 0.  0.
         24    2    1    2    0    0 -0.43574975208E+02  0.65699445648E+02 -0.70623143929E+03  0.71515689641E+03  0.80444670588E+02 0.  0.
        -13    1    3    3    0    0 -0.47074332813E+02  0.22522375197E+02 -0.43005269018E+03  0.43320730202E+03  0.00000000000E+00 0.  1.
         14    1    3    3    0    0 -0.21051952838E+02 -0.50521107214E+02 -0.76681777200E+03  0.76876853633E+03  0.00000000000E+00 0. -1.
        -13    1    5    5    0    0  0.23731721601E+02  0.16579092851E+02 -0.20822916059E+03  0.21023188210E+03  0.00000000000E+00 0.  1.
         14    1    5    5    0    0 -0.67306696809E+02  0.49120352797E+02 -0.49800227870E+03  0.50492501432E+03  0.00000000000E+00 0. -1.
          5    1    4    4  501    0 -0.21283063851E+02  0.62186217038E+02  0.11178499274E+02  0.66836690840E+02  0.47000000000E+01 0. -1.
         -5    1    4    4    0  501  0.44056361433E+02  0.96582829505E+01 -0.85915389806E+02  0.97148286746E+02  0.47000000000E+01 0. -1.
          1    1    1    2  502    0 -0.33281402279E+02  0.21191206779E+02 -0.11783366457E+04  0.11789970185E+04  0.00000000000E+00 0. -1.
          1    1    1    2  503    0  0.12220936556E+03 -0.13073642040E+03  0.41737368256E+02  0.18376383909E+03  0.00000000000E+00 0. -1.
<mgrwt>
<rscale>  0 0.81843563E+02</rscale>
<asrwt>0</asrwt>
<pdfrwt beam="1">  1        2 0.24223566E-01 0.16977117E+03</pdfrwt>
<pdfrwt beam="2">  1        2 0.48222916E+00 0.39455278E+02</pdfrwt>
<totfact> 0.81917458E+01</totfact>
</mgrwt>
</event>
<event>
13    1  0.2101801E-008  0.5949097E+02  0.7546771E-02  0.1505642E+00
          2   -1    0    0  503    0  0.00000000000E+00  0.00000000000E+00  0.20989048701E+04  0.20989048701E+04  0.00000000000E+00 0. -1.
         -1   -1    0    0    0  501 -0.00000000000E+00 -0.00000000000E+00 -0.25378682309E+04  0.25378682309E+04  0.00000000000E+00 0.  1.
         24    2    1    2    0    0  0.78129095566E+02 -0.10996291111E+03 -0.20039602727E+04  0.20101053839E+04  0.80441797326E+02 0.  0.
         25    2    1    2    0    0 -0.54228989811E+02  0.96506560772E+02  0.16420359420E+03  0.23418359946E+03  0.12499935320E+03 0.  0.
         24    2    1    2    0    0 -0.55902401460E+02 -0.66667619609E+02 -0.29689249369E+03  0.31959802955E+03  0.80175418235E+02 0.  0.
        -11    1    5    5    0    0 -0.32047826050E+01 -0.34076703435E+02 -0.21060643814E+03  0.21336954828E+03  0.00000000000E+00 0.  1.
         12    1    5    5    0    0 -0.52697618855E+02 -0.32590916174E+02 -0.86286055559E+02  0.10622848127E+03  0.00000000000E+00 0. -1.
        -13    1    3    3    0    0  0.60189691248E+02 -0.49511276335E+02 -0.15279864044E+04  0.15299727506E+04  0.00000000000E+00 0.  1.
         14    1    3    3    0    0  0.17939404319E+02 -0.60451634770E+02 -0.47597386826E+03  0.48013263338E+03  0.00000000000E+00 0. -1.
          5    1    4    4  502    0 -0.92248824343E+02  0.79128524962E+02  0.10016207527E+03  0.15756173513E+03  0.47000000000E+01 0. -1.
         -5    1    4    4    0  502  0.38019834531E+02  0.17378035810E+02  0.64041518929E+02  0.76621864329E+02  0.47000000000E+01 0. -1.
          1    1    1    2  503    0  0.10363704030E+02  0.25331226356E+02  0.18805590892E+04  0.18807582422E+04  0.00000000000E+00 0. -1.
         -2    1    1    2    0  501  0.21638591675E+02  0.54792743587E+02 -0.18287327789E+03  0.19212784589E+03  0.00000000000E+00 0.  1.
<mgrwt>
<rscale>  0 0.40351268E+02</rscale>
<asrwt>0</asrwt>
<pdfrwt beam="1">  1        2 0.30866248E+00 0.27369278E+02</pdfrwt>
<pdfrwt beam="2">  1       -1 0.37321591E+00 0.59490968E+02</pdfrwt>
<totfact> 0.18377326E-01</totfact>
</mgrwt>
</event>
<event>
13    1  0.2101801E-008  0.9258491E+02  0.7546771E-02  0.1477889E+00
          2   -1    0    0  502    0  0.00000000000E+00  0.00000000000E+00  0.19409230097E+04  0.19409230097E+04  0.00000000000E+00 0. -1.
          2   -1    0    0  503    0 -0.00000000000E+00 -0.00000000000E+00 -0.75635175813E+03  0.75635175813E+03  0.00000000000E+00 0. -1.
         24    2    1    2    0    0  0.32053998702E+01 -0.86254411121E+01 -0.27979736075E+03  0.29167336216E+03  0.81866441764E+02 0.  0.
         25    2    1    2    0    0 -0.28616760909E+02 -0.18098222879E+03  0.91074817079E+03  0.93736887189E+03  0.12499874095E+03 0.  0.
         24    2    1    2    0    0 -0.18824695576E+02  0.73539557123E+02 -0.21025855662E+03  0.23819226375E+03  0.82246326682E+02 0.  0.
        -11    1    3    3    0    0  0.37620003819E+02 -0.17681948594E+02 -0.98425171589E+02  0.10684301753E+03  0.00000000000E+00 0.  1.
         12    1    3    3    0    0 -0.34414603949E+02  0.90565074814E+01 -0.18137218916E+03  0.18483034462E+03  0.00000000000E+00 0. -1.
        -13    1    5    5    0    0  0.11552028677E+02 -0.14345608054E+02 -0.26875760529E+02  0.32581472358E+02  0.00000000000E+00 0.  1.
         14    1    5    5    0    0 -0.30376724253E+02  0.87885165177E+02 -0.18338279609E+03  0.20561079139E+03  0.00000000000E+00 0. -1.
          5    1    4    4  501    0 -0.23147961696E+02 -0.37215106102E+02  0.50356188569E+03  0.50548734403E+03  0.47000000000E+01 0. -1.
         -5    1    4    4    0  501 -0.54687992136E+01 -0.14376712268E+03  0.40718628510E+03  0.43188152786E+03  0.47000000000E+01 0. -1.
          1    1    1    2  502    0  0.17722761389E+02  0.11864896541E+02  0.98443748452E+03  0.98466848886E+03  0.00000000000E+00 0. -1.
          1    1    1    2  503    0  0.26513295227E+02  0.10420321623E+03 -0.22055848636E+03  0.24537178119E+03  0.00000000000E+00 0. -1.
<mgrwt>
<rscale>  0 0.44436763E+02</rscale>
<asrwt>0</asrwt>
<pdfrwt beam="1">  1        2 0.28542985E+00 0.21327729E+02</pdfrwt>
<pdfrwt beam="2">  1        2 0.11122820E+00 0.92584911E+02</pdfrwt>
<totfact> 0.75434792E+01</totfact>
</mgrwt>
</event>
<event>
13    1  0.2101801E-008  0.3461997E+02  0.7546771E-02  0.1617232E+00
          2   -1    0    0  502    0  0.00000000000E+00  0.00000000000E+00  0.20520431435E+04  0.20520431435E+04  0.00000000000E+00 0. -1.
          2   -1    0    0  503    0 -0.00000000000E+00 -0.00000000000E+00 -0.22067591332E+03  0.22067591332E+03  0.00000000000E+00 0. -1.
         24    2    1    2    0    0  0.51050171145E+01  0.25651457508E+01 -0.66300961856E+01  0.80172035521E+02  0.79692885076E+02 0.  0.
         25    2    1    2    0    0 -0.85931239523E+01  0.27392688755E+02  0.11550518219E+04  0.11621497992E+04  0.12499297250E+03 0.  0.
         24    2    1    2    0    0  0.39477996602E+02  0.24927502069E+01  0.64573453303E+02  0.11045835111E+03  0.80415113251E+02 0.  0.
        -11    1    3    3    0    0 -0.21229063217E+02  0.30822307142E+02  0.90180438829E+01  0.38496920112E+02  0.00000000000E+00 0.  1.
         12    1    3    3    0    0  0.26334080331E+02 -0.28257161391E+02 -0.15648140068E+02  0.41675115409E+02  0.00000000000E+00 0. -1.
        -11    1    5    5    0    0 -0.19058201539E+02  0.19124212695E+02  0.30430707142E+02  0.40681426896E+02  0.00000000000E+00 0.  1.
         12    1    5    5    0    0  0.58536198142E+02 -0.16631462488E+02  0.34142746161E+02  0.69776924214E+02  0.00000000000E+00 0. -1.
          5    1    4    4  501    0  0.39113394663E+02  0.35442426552E+01  0.92907408599E+03  0.92991567712E+03  0.47000000000E+01 0. -1.
         -5    1    4    4    0  501 -0.47706518615E+02  0.23848446100E+02  0.22597773594E+03  0.23223412204E+03  0.47000000000E+01 0. -1.
          1    1    1    2  502    0 -0.33263220136E+02 -0.94169909836E+01  0.76787227307E+03  0.76865008247E+03  0.00000000000E+00 0. -1.
          1    1    1    2  503    0 -0.27266696281E+01 -0.23033593729E+02 -0.14950022196E+03  0.15128878853E+03  0.00000000000E+00 0. -1.
<mgrwt>
<rscale>  0 0.28337081E+02</rscale>
<asrwt>0</asrwt>
<pdfrwt beam="1">  1        2 0.30177104E+00 0.34619970E+02</pdfrwt>
<pdfrwt beam="2">  1        2 0.32452341E-01 0.23194421E+02</pdfrwt>
<totfact> 0.22940721E+02</totfact>
</mgrwt>
</event>
<event>
13    1  0.2101801E-008  0.1329236E+03  0.7546771E-02  0.1376787E+00
          2   -1    0    0  502    0  0.00000000000E+00  0.00000000000E+00  0.93609886486E+03  0.93609886486E+03  0.00000000000E+00 0. -1.
          4   -1    0    0  503    0 -0.00000000000E+00 -0.00000000000E+00 -0.68328050084E+03  0.68328050084E+03  0.00000000000E+00 0. -1.
         24    2    1    2    0    0 -0.12997047463E+03 -0.13135450343E+02 -0.12227872506E+02  0.15298499368E+03  0.78676699803E+02 0.  0.
         25    2    1    2    0    0  0.26493513628E+02  0.49035286665E+02  0.48390342534E+03  0.50288535627E+03  0.12499916358E+03 0.  0.
         24    2    1    2    0    0 -0.10679630797E+02  0.53682701455E+02  0.31903060366E+02  0.10235422524E+03  0.80390890124E+02 0.  0.
        -11    1    3    3    0    0 -0.11970491972E+03 -0.35875128740E+02 -0.20634528592E+02  0.12665731892E+03  0.00000000000E+00 0.  1.
         12    1    3    3    0    0 -0.10265554915E+02  0.22739678397E+02  0.84066560862E+01  0.26327674752E+02  0.00000000000E+00 0. -1.
        -11    1    5    5    0    0  0.15710705993E+01 -0.20694477417E+02  0.68261157565E+00  0.20765250226E+02  0.00000000000E+00 0.  1.
         12    1    5    5    0    0 -0.12250701396E+02  0.74377178872E+02  0.31220448791E+02  0.81588975017E+02  0.00000000000E+00 0. -1.
          5    1    4    4  501    0 -0.89853585442E+01 -0.25928855681E+02  0.29762420662E+03  0.29892356981E+03  0.47000000000E+01 0.  1.
         -5    1    4    4    0  501  0.35478872172E+02  0.74964142346E+02  0.18627921872E+03  0.20396178646E+03  0.47000000000E+01 0.  1.
          1    1    1    2  502    0 -0.24064750390E+02  0.21235970384E+02  0.29017657873E+03  0.29194610032E+03  0.00000000000E+00 0. -1.
          3    1    1    2  503    0  0.13822134219E+03 -0.11081850816E+03 -0.54093682791E+03  0.56920869018E+03  0.00000000000E+00 0. -1.
<mgrwt>
<rscale>  0 0.65315851E+02</rscale>
<asrwt>0</asrwt>
<pdfrwt beam="1">  1        2 0.13766160E+00 0.32094838E+02</pdfrwt>
<pdfrwt beam="2">  1        4 0.10048243E+00 0.13292357E+03</pdfrwt>
<totfact> 0.14792345E+01</totfact>
</mgrwt>
</event>
<event>
13    1  0.2101801E-008  0.9515628E+02  0.7546771E-02  0.1423774E+00
          2   -1    0    0  502    0  0.00000000000E+00  0.00000000000E+00  0.20221077627E+04  0.20221077627E+04  0.00000000000E+00 0. -1.
          2   -1    0    0  503    0 -0.00000000000E+00 -0.00000000000E+00 -0.29858455791E+04  0.29858455791E+04  0.00000000000E+00 0. -1.
         24    2    1    2    0    0  0.40697552918E+02  0.88494762440E+02 -0.69516072320E+03  0.70647939671E+03  0.79856703607E+02 0.  0.
         25    2    1    2    0    0  0.15233956325E+01 -0.18948614874E+03  0.47127100782E+03  0.52309491571E+03  0.12499842693E+03 0.  0.
         24    2    1    2    0    0 -0.11004072689E+03  0.44951288612E+02 -0.12473057492E+03  0.19015570949E+03  0.80448105082E+02 0.  0.
        -11    1    5    5    0    0  0.32498669473E+01  0.28872177851E+02 -0.27335657212E+02  0.39892385792E+02  0.00000000000E+00 0.  1.
         12    1    5    5    0    0 -0.11329059383E+03  0.16079110762E+02 -0.97394917706E+02  0.15026332370E+03  0.00000000000E+00 0. -1.
        -13    1    3    3    0    0  0.10040745484E+00 -0.19983016642E+01  0.16818909951E+01  0.26138187614E+01  0.00000000000E+00 0.  1.
         14    1    3    3    0    0  0.40597145463E+02  0.90493064104E+02 -0.69684261419E+03  0.70386557795E+03  0.00000000000E+00 0. -1.
          5    1    4    4  501    0  0.50874575687E+02 -0.15617651938E+03  0.30542947804E+03  0.34682644610E+03  0.47000000000E+01 0.  1.
         -5    1    4    4    0  501 -0.49351180054E+02 -0.33309629361E+02  0.16584152978E+03  0.17626846962E+03  0.47000000000E+01 0.  1.
          1    1    1    2  502    0 -0.21237642720E+02  0.22453539597E+02  0.14853144294E+04  0.14856359423E+04  0.00000000000E+00 0. -1.
          1    1    1    2  503    0  0.89057421057E+02  0.33586558093E+02 -0.21004319554E+04  0.21025873776E+04  0.00000000000E+00 0. -1.
<mgrwt>
<rscale>  0 0.54230321E+02</rscale>
<asrwt>0</asrwt>
<pdfrwt beam="1">  1        2 0.29736879E+00 0.30906292E+02</pdfrwt>
<pdfrwt beam="2">  1        2 0.43909493E+00 0.95156278E+02</pdfrwt>
<totfact> 0.47164121E+00</totfact>
</mgrwt>
</event>
<event>
13    1  0.2101801E-008  0.7004721E+02  0.7546771E-02  0.1376765E+00
          2   -1    0    0  503    0  0.00000000000E+00  0.00000000000E+00  0.22363184085E+04  0.22363184085E+04  0.00000000000E+00 0. -1.
          2   -1    0    0  502    0 -0.00000000000E+00 -0.00000000000E+00 -0.10292654215E+03  0.10292654215E+03  0.00000000000E+00 0. -1.
         24    2    1    2    0    0 -0.15875544575E+02  0.18119379049E+02  0.45724896150E+03  0.46347673436E+03  0.71789453854E+02 0.  0.
         25    2    1    2    0    0 -0.73670762730E+02 -0.29685931956E+02  0.79906662328E+03  0.81267556686E+03  0.12500189077E+03 0.  0.
         24    2    1    2    0    0  0.77053156061E+02 -0.99119356214E+01  0.54428414179E+03  0.55346266150E+03  0.63563002995E+02 0.  0.
        -13    1    5    5    0    0  0.67545608491E+01  0.45546484944E+01  0.52956868488E+01  0.97166462513E+01  0.00000000000E+00 0.  1.
         14    1    5    5    0    0  0.70298595212E+02 -0.14466584116E+02  0.53898845494E+03  0.54374601525E+03  0.00000000000E+00 0. -1.
        -13    1    3    3    0    0 -0.34419239523E+02 -0.91986293770E+01  0.33354401944E+03  0.33544136856E+03  0.00000000000E+00 0.  1.
         14    1    3    3    0    0  0.18543694948E+02  0.27318008426E+02  0.12370494206E+03  0.12803536580E+03  0.00000000000E+00 0. -1.
          5    1    4    4  501    0 -0.10577844132E+03 -0.24976959248E+02  0.69789031441E+03  0.70631855992E+03  0.47000000000E+01 0.  1.
         -5    1    4    4    0  501  0.32107678594E+02 -0.47089727077E+01  0.10117630887E+03  0.10635700694E+03  0.47000000000E+01 0.  1.
          1    1    1    2  502    0 -0.29486122107E+01 -0.60843937704E+02 -0.73118266815E+02  0.95168061929E+02  0.00000000000E+00 0. -1.
          1    1    1    2  503    0  0.15441763455E+02  0.82322426232E+02  0.40591040657E+03  0.41446192598E+03  0.00000000000E+00 0. -1.
<mgrwt>
<rscale>  0 0.65321893E+02</rscale>
<asrwt>0</asrwt>
<pdfrwt beam="1">  1        2 0.32887032E+00 0.70047208E+02</pdfrwt>
<pdfrwt beam="2">  1        2 0.15136258E-01 0.60915343E+02</pdfrwt>
<totfact> 0.40850101E+02</totfact>
</mgrwt>
</event>
<event>
13    1  0.2101801E-008  0.7793104E+02  0.7546771E-02  0.1388339E+00
          2   -1    0    0  503    0  0.00000000000E+00  0.00000000000E+00  0.44340012684E+03  0.44340012684E+03  0.00000000000E+00 0. -1.
          2   -1    0    0  502    0 -0.00000000000E+00 -0.00000000000E+00 -0.18280472079E+04  0.18280472079E+04  0.00000000000E+00 0. -1.
         24    2    1    2    0    0  0.82310182054E+02  0.34545381883E+02 -0.66628767228E+03  0.67711660213E+03  0.81112768242E+02 0.  0.
         25    2    1    2    0    0  0.11210879752E+03  0.34142727553E+02  0.37222140908E+03  0.40976409284E+03  0.12499490421E+03 0.  0.
         24    2    1    2    0    0 -0.83094493144E+02 -0.71831956236E+02 -0.31701981325E+03  0.34451944148E+03  0.78278725320E+02 0.  0.
        -11    1    5    5    0    0 -0.61122652239E+01 -0.12482964807E+02 -0.15468003114E+03  0.15530323960E+03  0.00000000000E+00 0.  1.
         12    1    5    5    0    0 -0.76982227920E+02 -0.59348991429E+02 -0.16233978211E+03  0.18921620188E+03  0.00000000000E+00 0. -1.
        -13    1    3    3    0    0  0.57827071430E+02  0.60242242720E+02 -0.51464286282E+03  0.52137354579E+03  0.00000000000E+00 0.  1.
         14    1    3    3    0    0  0.24483110624E+02 -0.25696860837E+02 -0.15164480946E+03  0.15574305634E+03  0.00000000000E+00 0. -1.
          5    1    4    4  501    0 -0.19197317190E+01 -0.36768923708E+01 -0.84707994308E+01  0.10537995558E+02  0.47000000000E+01 0.  1.
         -5    1    4    4    0  501  0.11402852924E+03  0.37819619924E+02  0.38069220851E+03  0.39922609728E+03  0.47000000000E+01 0.  1.
          1    1    1    2  502    0 -0.72541585798E+02 -0.28158030837E+02 -0.78505331007E+03  0.78890040944E+03  0.00000000000E+00 0. -1.
          1    1    1    2  503    0 -0.38782900630E+02  0.31301877637E+02  0.11492305462E+02  0.51146788850E+02  0.00000000000E+00 0. -1.
<mgrwt>
<rscale>  0 0.62321755E+02</rscale>
<asrwt>0</asrwt>
<pdfrwt beam="1">  1        2 0.65205901E-01 0.49838950E+02</pdfrwt>
<pdfrwt beam="2">  1        2 0.26883047E+00 0.77931040E+02</pdfrwt>
<totfact> 0.13369107E+02</totfact>
</mgrwt>
</event>
<event>
13    1  0.2101801E-008  0.1277528E+03  0.7546771E-02  0.1237822E+00
          2   -1    0    0  503    0  0.00000000000E+00  0.00000000000E+00  0.19160168481E+04  0.19160168481E+04  0.00000000000E+00 0. -1.
         -1   -1    0    0    0  501 -0.00000000000E+00 -0.00000000000E+00 -0.81625003620E+03  0.81625003620E+03  0.00000000000E+00 0.  1.
         24    2    1    2    0    0 -0.76737215500E+02  0.16170063043E+03 -0.68226862521E+02  0.20778217940E+03  0.80516055424E+02 0.  0.
         25    2    1    2    0    0 -0.29663764748E+02 -0.10840010630E+03  0.19697899303E+03  0.25894814931E+03  0.12499159312E+03 0.  0.
         24    2    1    2    0    0  0.14853934878E+03  0.34657776312E+02  0.13668232021E+04  0.13776970536E+04  0.81107373742E+02 0.  0.
        -11    1    5    5    0    0  0.13774865035E+03  0.97538017993E+01  0.94917392921E+03  0.95916681303E+03  0.00000000000E+00 0.  1.
         12    1    5    5    0    0  0.10790698436E+02  0.24903974513E+02  0.41764927291E+03  0.41853024059E+03  0.00000000000E+00 0. -1.
        -11    1    3    3    0    0  0.15917940494E+02  0.19066619320E+02 -0.89725792427E+00  0.24854011218E+02  0.00000000000E+00 0.  1.
         12    1    3    3    0    0 -0.92655155995E+02  0.14263401111E+03 -0.67329604597E+02  0.18292816818E+03  0.00000000000E+00 0. -1.
          5    1    4    4  502    0 -0.15473928908E+02  0.32988487283E+01  0.12308695018E+03  0.12418861535E+03  0.47000000000E+01 0. -1.
         -5    1    4    4    0  502 -0.14189835840E+02 -0.11169895503E+03  0.73892042853E+02  0.13475953396E+03  0.47000000000E+01 0. -1.
          1    1    1    2  503    0  0.73868900675E+02 -0.11409465146E+03  0.22112048897E+03  0.25955437700E+03  0.00000000000E+00 0. -1.
         -2    1    1    2    0  501 -0.11600726921E+03  0.26136351013E+02 -0.61692900966E+03  0.62828512502E+03  0.00000000000E+00 0.  1.
<mgrwt>
<rscale>  0 0.12325475E+03</rscale>
<asrwt>0</asrwt>
<pdfrwt beam="1">  1        2 0.28176718E+00 0.12775280E+03</pdfrwt>
<pdfrwt beam="2">  1       -1 0.12003677E+00 0.11891508E+03</pdfrwt>
<totfact> 0.78202998E+00</totfact>
</mgrwt>
</event>
<event>
13    1  0.2101801E-008  0.1172501E+03  0.7546771E-02  0.1340289E+00
          2   -1    0    0  502    0  0.00000000000E+00  0.00000000000E+00  0.16704208933E+04  0.16704208933E+04  0.00000000000E+00 0. -1.
          2   -1    0    0  503    0 -0.00000000000E+00 -0.00000000000E+00 -0.24740173685E+04  0.24740173685E+04  0.00000000000E+00 0. -1.
         24    2    1    2    0    0  0.51891880058E+03  0.11230627944E+03 -0.65901595034E+03  0.85218001476E+03  0.10009661716E+03 0.  0.
         25    2    1    2    0    0  0.10163339526E+03 -0.46631578110E+03 -0.48652928357E+03  0.69290599157E+03  0.12501285795E+03 0.  0.
         24    2    1    2    0    0 -0.69649205979E+03  0.34852364680E+03  0.69250973278E+03  0.10451367866E+04  0.78557309818E+02 0.  0.
        -11    1    5    5    0    0 -0.39026883440E+03  0.21776362551E+03  0.44087410241E+03  0.62777442913E+03  0.00000000000E+00 0.  1.
         12    1    5    5    0    0 -0.30622322539E+03  0.13076002129E+03  0.25163563038E+03  0.41736235745E+03  0.00000000000E+00 0. -1.
        -13    1    3    3    0    0  0.25500644569E+03  0.81649534139E+02 -0.39833947222E+03  0.47996798736E+03  0.00000000000E+00 0.  1.
         14    1    3    3    0    0  0.26391235489E+03  0.30656745302E+02 -0.26067647812E+03  0.37221202740E+03  0.00000000000E+00 0. -1.
          5    1    4    4  501    0  0.92482398013E+02 -0.35451562024E+03 -0.29294151132E+03  0.46911740320E+03  0.47000000000E+01 0. -1.
         -5    1    4    4    0  501  0.91509972450E+01 -0.11180016086E+03 -0.19358777225E+03  0.22378858837E+03  0.47000000000E+01 0. -1.
          1    1    1    2  502    0 -0.38687794309E+02  0.30849309566E+02  0.59718215971E+03  0.59922863517E+03  0.00000000000E+00 0. -1.
          1    1    1    2  503    0  0.11462765827E+03 -0.25363454715E+02 -0.94774313381E+03  0.95498683371E+03  0.00000000000E+00 0. -1.
<mgrwt>
<rscale>  0 0.76169014E+02</rscale>
<asrwt>0</asrwt>
<pdfrwt beam="1">  1        2 0.24565013E+00 0.49481566E+02</pdfrwt>
<pdfrwt beam="2">  1        2 0.36382608E+00 0.11725010E+03</pdfrwt>
<totfact> 0.11568396E+01</totfact>
</mgrwt>
</event>
<event>
13    1  0.2101801E-008  0.1201461E+03  0.7546771E-02  0.1363817E+00
          2   -1    0    0  503    0  0.00000000000E+00  0.00000000000E+00  0.10063412979E+04  0.10063412979E+04  0.00000000000E+00 0. -1.
          2   -1    0    0  502    0 -0.00000000000E+00 -0.00000000000E+00 -0.24069887772E+04  0.24069887772E+04  0.00000000000E+00 0. -1.
         24    2    1    2    0    0  0.85419504023E+00  0.19060371554E+02  0.41734099404E+03  0.42544252892E+03  0.80397840122E+02 0.  0.
         25    2    1    2    0    0 -0.17809522086E+03  0.44957354218E+02 -0.36127252219E+02  0.22509898467E+03  0.12500121261E+03 0.  0.
         24    2    1    2    0    0  0.12294336233E+02 -0.63585051944E+02  0.11261626926E+03  0.15349660780E+03  0.81759250055E+02 0.  0.
        -13    1    3    3    0    0  0.17163359132E+02 -0.26842057932E+02  0.12099456603E+03  0.12511899128E+03  0.00000000000E+00 0.  1.
         14    1    3    3    0    0 -0.16309164091E+02  0.45902429486E+02  0.29634642801E+03  0.30032353764E+03  0.00000000000E+00 0. -1.
        -13    1    5    5    0    0 -0.13073437543E+02 -0.71983302593E+02  0.60525831429E+02  0.94952024157E+02  0.00000000000E+00 0.  1.
         14    1    5    5    0    0  0.25367773776E+02  0.83982506487E+01  0.52090437835E+02  0.58544583645E+02  0.00000000000E+00 0. -1.
          5    1    4    4  501    0 -0.33215512195E+02 -0.28325851471E+02  0.26194357902E+02  0.51125908283E+02  0.47000000000E+01 0.  1.
         -5    1    4    4    0  501 -0.14487970866E+03  0.73283205689E+02 -0.62321610121E+02  0.17397307638E+03  0.47000000000E+01 0.  1.
          1    1    1    2  502    0 -0.48351391402E+01  0.39234157065E+02 -0.22304353663E+04  0.22307856510E+04  0.00000000000E+00 0. -1.
          1    1    1    2  503    0  0.16978182872E+03 -0.39666830893E+02  0.33595787588E+03  0.37850630273E+03  0.00000000000E+00 0. -1.
<mgrwt>
<rscale>  0 0.68916551E+02</rscale>
<asrwt>0</asrwt>
<pdfrwt beam="1">  1        2 0.14799137E+00 0.12014608E+03</pdfrwt>
<pdfrwt beam="2">  1        2 0.35396894E+00 0.39530971E+02</pdfrwt>
<totfact> 0.29540089E+01</totfact>
</mgrwt>
</event>
<event>
13    1  0.2101801E-008  0.5224460E+02  0.7546771E-02  0.1567907E+00
          2   -1    0    0  503    0  0.00000000000E+00  0.00000000000E+00  0.60210357540E+03  0.60210357540E+03  0.00000000000E+00 0. -1.
          2   -1    0    0  502    0 -0.00000000000E+00 -0.00000000000E+00 -0.11111589757E+04  0.11111589757E+04  0.00000000000E+00 0. -1.
         24    2    1    2    0    0 -0.44836070377E+02  0.25197386817E+02 -0.15744868809E+02  0.96127300867E+02  0.79670418406E+02 0.  0.
         25    2    1    2    0    0 -0.11260723537E+02 -0.12988268313E+03  0.49760422041E+03  0.52937149615E+03  0.12501162143E+03 0.  0.
         24    2    1    2    0    0  0.31040232904E+02  0.81932498677E+02 -0.45442644654E+03  0.46970523981E+03  0.80269462384E+02 0.  0.
        -11    1    5    5    0    0 -0.95545294573E+00  0.83864783601E+02 -0.37029576245E+03  0.37967508018E+03  0.00000000000E+00 0.  1.
         12    1    5    5    0    0  0.31995685850E+02 -0.19322849239E+01 -0.84130684083E+02  0.90030159626E+02  0.00000000000E+00 0. -1.
        -13    1    3    3    0    0 -0.22793778883E+02  0.16426429980E+02  0.32139335951E+02  0.42688650401E+02  0.00000000000E+00 0.  1.
         14    1    3    3    0    0 -0.22042291494E+02  0.87709568368E+01 -0.47884204760E+02  0.53438650466E+02  0.00000000000E+00 0. -1.
          5    1    4    4  501    0 -0.20156261184E+02 -0.29978761814E+02  0.20469903262E+02  0.41786456710E+02  0.47000000000E+01 0.  1.
         -5    1    4    4    0  501  0.88955376470E+01 -0.99903921319E+02  0.47713431714E+03  0.48758503944E+03  0.47000000000E+01 0.  1.
          1    1    1    2  502    0  0.29839381208E+02  0.42934557933E+02 -0.57336782314E+03  0.57574684155E+03  0.00000000000E+00 0. -1.
          1    1    1    2  503    0 -0.47828201989E+01 -0.20181760294E+02  0.36879517786E+02  0.42311672736E+02  0.00000000000E+00 0. -1.
<mgrwt>
<rscale>  0 0.32917965E+02</rscale>
<asrwt>0</asrwt>
<pdfrwt beam="1">  1        2 0.88544644E-01 0.20740753E+02</pdfrwt>
<pdfrwt beam="2">  1        2 0.16340573E+00 0.52244604E+02</pdfrwt>
<totfact> 0.22856438E+02</totfact>
</mgrwt>
</event>
<event>
13    1  0.2101801E-008  0.7586814E+02  0.7546771E-02  0.1401499E+00
          2   -1    0    0  503    0  0.00000000000E+00  0.00000000000E+00  0.45302480156E+03  0.45302480156E+03  0.00000000000E+00 0. -1.
          2   -1    0    0  502    0 -0.00000000000E+00 -0.00000000000E+00 -0.13634017113E+04  0.13634017113E+04  0.00000000000E+00 0. -1.
         24    2    1    2    0    0 -0.22806010945E+02 -0.58939619212E+02 -0.10200032063E+04  0.10252974150E+04  0.82669556161E+02 0.  0.
         25    2    1    2    0    0 -0.11861847850E+03  0.82232064026E+02  0.16422483463E+03  0.25184847283E+03  0.12500160464E+03 0.  0.
         24    2    1    2    0    0  0.52500509732E+02  0.56343497445E+02  0.52372780914E+02  0.12432795677E+03  0.82362852223E+02 0.  0.
        -11    1    3    3    0    0 -0.38601003768E+02  0.27003438660E+01 -0.29939061831E+03  0.30188088989E+03  0.00000000000E+00 0.  1.
         12    1    3    3    0    0  0.15794992823E+02 -0.61639963078E+02 -0.72061258802E+03  0.72341652515E+03  0.00000000000E+00 0. -1.
        -13    1    5    5    0    0 -0.21716397734E+02  0.12689270913E+02  0.37089689832E+01  0.25423925303E+02  0.00000000000E+00 0.  1.
         14    1    5    5    0    0  0.74216907467E+02  0.43654226531E+02  0.48663811930E+02  0.98904031463E+02  0.00000000000E+00 0. -1.
          5    1    4    4  501    0 -0.73197365712E+02  0.68397376544E+02  0.23155649929E+02  0.10292875978E+03  0.47000000000E+01 0. -1.
         -5    1    4    4    0  501 -0.45421112787E+02  0.13834687482E+02  0.14106918470E+03  0.14891971306E+03  0.47000000000E+01 0. -1.
          1    1    1    2  502    0  0.25805726825E+02 -0.38190926821E+02 -0.24946575135E+03  0.25368808314E+03  0.00000000000E+00 0. -1.
          1    1    1    2  503    0  0.63118252887E+02 -0.41445015437E+02  0.14249443238E+03  0.16126458511E+03  0.00000000000E+00 0. -1.
<mgrwt>
<rscale>  0 0.59134782E+02</rscale>
<asrwt>0</asrwt>
<pdfrwt beam="1">  1        2 0.66621294E-01 0.75868138E+02</pdfrwt>
<pdfrwt beam="2">  1        2 0.20050025E+00 0.46092108E+02</pdfrwt>
<totfact> 0.22773963E+02</totfact>
</mgrwt>
</event>
<event>
13    1  0.2101801E-008  0.9912343E+02  0.7546771E-02  0.1453214E+00
          2   -1    0    0  502    0  0.00000000000E+00  0.00000000000E+00  0.97186280086E+03  0.97186280086E+03  0.00000000000E+00 0. -1.
          2   -1    0    0  503    0 -0.00000000000E+00 -0.00000000000E+00 -0.53041393011E+03  0.53041393011E+03  0.00000000000E+00 0. -1.
         24    2    1    2    0    0  0.46004029949E+02 -0.16407443719E+02 -0.58822740332E+02  0.10965250899E+03  0.78600146100E+02 0.  0.
         25    2    1    2    0    0  0.52686527307E+02 -0.13215636152E+03  0.50226573648E+03  0.53678496035E+03  0.12500419820E+03 0.  0.
         24    2    1    2    0    0 -0.15766477581E+02  0.37647392905E+02  0.79934209914E+02  0.11913676403E+03  0.78346554619E+02 0.  0.
        -11    1    3    3    0    0 -0.73825519931E+01 -0.98175167862E+01 -0.54298773067E+02  0.55670840359E+02  0.00000000000E+00 0.  1.
         12    1    3    3    0    0  0.53386581943E+02 -0.65899269324E+01 -0.45239672656E+01  0.53981668632E+02  0.00000000000E+00 0. -1.
        -11    1    5    5    0    0  0.17483037209E+02 -0.38920511616E+01 -0.52819328178E+01  0.18673603471E+02  0.00000000000E+00 0.  1.
         12    1    5    5    0    0 -0.33249514790E+02  0.41539444066E+02  0.85216142731E+02  0.10046316056E+03  0.00000000000E+00 0. -1.
          5    1    4    4  501    0 -0.18590583617E+02  0.73321346175E+01  0.16416494584E+02  0.26286142580E+02  0.47000000000E+01 0. -1.
         -5    1    4    4    0  501  0.71277110924E+02 -0.13948849614E+03  0.48584924189E+03  0.51049881777E+03  0.47000000000E+01 0. -1.
          1    1    1    2  502    0  0.20840631675E+02  0.11490651776E+02  0.31430925217E+03  0.31520893548E+03  0.00000000000E+00 0. -1.
          1    1    1    2  503    0 -0.10376471135E+03  0.99425760559E+02 -0.39623758748E+03  0.42149356213E+03  0.00000000000E+00 0. -1.
<mgrwt>
<rscale>  0 0.48569390E+02</rscale>
<asrwt>0</asrwt>
<pdfrwt beam="1">  1        2 0.14292100E+00 0.23798466E+02</pdfrwt>
<pdfrwt beam="2">  1        2 0.78002048E-01 0.99123432E+02</pdfrwt>
<totfact> 0.31604802E+02</totfact>
</mgrwt>
</event>
<event>
13    1  0.2101801E-008  0.1899481E+03  0.7546771E-02  0.1199835E+00
         -1   -1    0    0    0  501 -0.00000000000E+00  0.00000000000E+00  0.50986820623E+03  0.50986820623E+03  0.00000000000E+00 0.  1.
          2   -1    0    0  503    0  0.00000000000E+00 -0.00000000000E+00 -0.18193544615E+04  0.18193544615E+04  0.00000000000E+00 0. -1.
         24    2    1    2    0    0 -0.26194720318E+02  0.20798240834E+02  0.34426556201E+02  0.93881574617E+02  0.80683530453E+02 0.  0.
         25    2    1    2    0    0  0.51715774814E+01 -0.19120011267E+03 -0.92089213413E+03  0.94881549841E+03  0.12499719603E+03 0.  0.
         24    2    1    2    0    0  0.21295805478E+03 -0.11932811298E+03  0.18494850673E+02  0.25886880099E+03  0.84146687273E+02 0.  0.
        -13    1    3    3    0    0  0.18681107325E+02  0.19024284041E+02  0.40575399248E+02  0.48551726832E+02  0.00000000000E+00 0.  1.
         14    1    3    3    0    0 -0.44875827644E+02  0.17739567935E+01 -0.61488430471E+01  0.45329847785E+02  0.00000000000E+00 0. -1.
        -13    1    5    5    0    0  0.75603790274E+02 -0.38816786650E+02 -0.33546820042E+02  0.91367746851E+02  0.00000000000E+00 0.  1.
         14    1    5    5    0    0  0.13735426451E+03 -0.80511326333E+02  0.52041670715E+02  0.16750105414E+03  0.00000000000E+00 0. -1.
          5    1    4    4  502    0 -0.71367843983E+01 -0.86387273390E+02 -0.17360924888E+03  0.19410295204E+03  0.47000000000E+01 0.  1.
         -5    1    4    4    0  502  0.12308361880E+02 -0.10481283928E+03 -0.74728288525E+03  0.75471254637E+03  0.47000000000E+01 0.  1.
          1    1    1    2  503    0 -0.11416885147E+03  0.16978847802E+03 -0.70162902718E+03  0.73085288923E+03  0.00000000000E+00 0. -1.
         -2    1    1    2    0  501 -0.77766060473E+02  0.11994150679E+03  0.26011349921E+03  0.29680390443E+03  0.00000000000E+00 0.  1.
<mgrwt>
<rscale>  0 0.15052023E+03</rscale>
<asrwt>0</asrwt>
<pdfrwt beam="2">  1        2 0.26755213E+00 0.18994805E+03</pdfrwt>
<pdfrwt beam="1">  1       -1 0.74980618E-01 0.11927651E+03</pdfrwt>
<totfact> 0.23222661E+01</totfact>
</mgrwt>
</event>
<event>
13    1  0.2101801E-008  0.1284385E+03  0.7546771E-02  0.1316917E+00
         -3   -1    0    0    0  501 -0.00000000000E+00  0.00000000000E+00  0.45852991461E+03  0.45852991461E+03  0.00000000000E+00 0.  1.
          2   -1    0    0  503    0  0.00000000000E+00 -0.00000000000E+00 -0.15747332655E+04  0.15747332655E+04  0.00000000000E+00 0. -1.
         24    2    1    2    0    0 -0.21028152914E+03 -0.13707704368E+03 -0.28295553463E+03  0.38666349278E+03  0.80227081896E+02 0.  0.
         25    2    1    2    0    0  0.12892530475E+03  0.29072877264E+02 -0.31366315289E+03  0.36260593959E+03  0.12502610747E+03 0.  0.
         24    2    1    2    0    0 -0.46106164068E+02  0.72824611281E+02 -0.22904536311E+03  0.25842341870E+03  0.83016158654E+02 0.  0.
        -11    1    5    5    0    0 -0.37344035342E+02  0.85840280301E+02 -0.22255980150E+03  0.24144563765E+03  0.00000000000E+00 0.  1.
         12    1    5    5    0    0 -0.87621287260E+01 -0.13015669020E+02 -0.64855616057E+01  0.16977781045E+02  0.00000000000E+00 0. -1.
        -11    1    3    3    0    0 -0.81995324167E+02 -0.34760009145E+02 -0.51294800098E+02  0.10277474368E+03  0.00000000000E+00 0.  1.
         12    1    3    3    0    0 -0.12828620497E+03 -0.10231703454E+03 -0.23166073454E+03  0.28388874911E+03  0.00000000000E+00 0. -1.
          5    1    4    4  502    0  0.43375833949E+02 -0.16025636958E+02 -0.22998391770E+03  0.23463370689E+03  0.47000000000E+01 0.  1.
         -5    1    4    4    0  502  0.85549470803E+02  0.45098514222E+02 -0.83679235196E+02  0.12797223270E+03  0.47000000000E+01 0.  1.
          1    1    1    2  503    0 -0.46221817888E+00  0.55505019175E+02 -0.64541346323E+03  0.64779592413E+03  0.00000000000E+00 0. -1.
         -4    1    1    2    0  501  0.12792460664E+03 -0.20325464040E+02  0.35487416296E+03  0.37777440492E+03  0.00000000000E+00 0.  1.
<mgrwt>
<rscale>  0 0.84434743E+02</rscale>
<asrwt>0</asrwt>
<pdfrwt beam="2">  1        2 0.23157842E+00 0.55506944E+02</pdfrwt>
<pdfrwt beam="1">  1       -3 0.67430870E-01 0.12843845E+03</pdfrwt>
<totfact> 0.20305951E+01</totfact>
</mgrwt>
</event>
<event>
13    1  0.2101801E-008  0.1050893E+03  0.7546771E-02  0.1299478E+00
          2   -1    0    0  503    0  0.00000000000E+00  0.00000000000E+00  0.11261267412E+04  0.11261267412E+04  0.00000000000E+00 0. -1.
          2   -1    0    0  502    0 -0.00000000000E+00 -0.00000000000E+00 -0.17183712659E+04  0.17183712659E+04  0.00000000000E+00 0. -1.
         24    2    1    2    0    0  0.10404495647E+03 -0.57594642990E+01 -0.21630877825E+02  0.13357624878E+03  0.80722951932E+02 0.  0.
         25    2    1    2    0    0  0.11867627821E+03 -0.61353194946E+02  0.40099233305E+03  0.44075769491E+03  0.12499688362E+03 0.  0.
         24    2    1    2    0    0 -0.72130022812E+02  0.50679738775E+01 -0.73343016931E+02  0.13038917590E+03  0.79960706034E+02 0.  0.
        -11    1    5    5    0    0  0.14386366431E+02 -0.10260186817E+02 -0.31924609415E+01  0.17956357633E+02  0.00000000000E+00 0.  1.
         12    1    5    5    0    0 -0.86516389243E+02  0.15328160694E+02 -0.70150555989E+02  0.11243281827E+03  0.00000000000E+00 0. -1.
        -13    1    3    3    0    0  0.93857482125E+01  0.29172735506E+02 -0.86693700901E+01  0.31848057149E+02  0.00000000000E+00 0.  1.
         14    1    3    3    0    0  0.94659208254E+02 -0.34932199805E+02 -0.12961507735E+02  0.10172819163E+03  0.00000000000E+00 0. -1.
          5    1    4    4  501    0  0.51659861019E+02 -0.93268626264E+02  0.20477580958E+03  0.23091773443E+03  0.47000000000E+01 0. -1.
         -5    1    4    4    0  501  0.67016417194E+02  0.31915431317E+02  0.19621652347E+03  0.20983996048E+03  0.47000000000E+01 0. -1.
          1    1    1    2  502    0 -0.10488889703E+03 -0.30146659883E+01 -0.15146504005E+04  0.15182808056E+04  0.00000000000E+00 0. -1.
          1    1    1    2  503    0 -0.45702314836E+02  0.65059351356E+02  0.61638743753E+03  0.62149408197E+03  0.00000000000E+00 0. -1.
<mgrwt>
<rscale>  0 0.91407726E+02</rscale>
<asrwt>0</asrwt>
<pdfrwt beam="1">  1        2 0.16560687E+00 0.79507363E+02</pdfrwt>
<pdfrwt beam="2">  1        2 0.25270166E+00 0.10508929E+03</pdfrwt>
<totfact> 0.49108858E+01</totfact>
</mgrwt>
</event>
<event>
13    1  0.2101801E-008  0.1060565E+03  0.7546771E-02  0.1350411E+00
          2   -1    0    0  503    0  0.00000000000E+00  0.00000000000E+00  0.22432167509E+04  0.22432167509E+04  0.00000000000E+00 0. -1.
         -3   -1    0    0    0  501 -0.00000000000E+00 -0.00000000000E+00 -0.10977898324E+03  0.10977898324E+03  0.00000000000E+00 0.  1.
         24    2    1    2    0    0 -0.99497095622E+02 -0.18475853490E+02  0.10647042628E+03  0.16771416883E+03  0.80938628310E+02 0.  0.
         25    2    1    2    0    0  0.46972495439E+02  0.16248865142E+02  0.13095901205E+04  0.13164819181E+04  0.12501166333E+03 0.  0.
         24    2    1    2    0    0 -0.33192901137E+02 -0.49673230911E+02  0.90007872647E+02  0.13305642567E+03  0.77674942666E+02 0.  0.
        -13    1    3    3    0    0  0.76758475835E+00 -0.33917497878E+01 -0.11584055266E+02  0.12094771159E+02  0.00000000000E+00 0.  1.
         14    1    3    3    0    0 -0.10026468038E+03 -0.15084103702E+02  0.11805448155E+03  0.15561939767E+03  0.00000000000E+00 0. -1.
        -13    1    5    5    0    0 -0.58481720981E+01  0.20448027798E+02  0.11025728928E+02  0.23955994158E+02  0.00000000000E+00 0.  1.
         14    1    5    5    0    0 -0.27344729038E+02 -0.70121258709E+02  0.78982143719E+02  0.10910043151E+03  0.00000000000E+00 0. -1.
          5    1    4    4  502    0 -0.20293639445E+02 -0.39243223360E+02  0.32428385371E+03  0.32731325998E+03  0.47000000000E+01 0. -1.
         -5    1    4    4    0  502  0.67266134883E+02  0.55492088502E+02  0.98530626682E+03  0.98916865813E+03  0.47000000000E+01 0. -1.
          1    1    1    2  503    0 -0.35607194645E+02 -0.35311095116E+02  0.57534769730E+03  0.57752897636E+03  0.00000000000E+00 0. -1.
         -4    1    1    2    0  501  0.12132469596E+03  0.87211314375E+02  0.52021650866E+02  0.15821424514E+03  0.00000000000E+00 0.  1.
<mgrwt>
<rscale>  0 0.72927643E+02</rscale>
<asrwt>0</asrwt>
<pdfrwt beam="1">  1        2 0.32988479E+00 0.50147241E+02</pdfrwt>
<pdfrwt beam="2">  1       -3 0.16143970E-01 0.10605651E+03</pdfrwt>
<totfact> 0.14495426E+02</totfact>
</mgrwt>
</event>
<event>
13    1  0.2101801E-008  0.1284641E+03  0.7546771E-02  0.1253331E+00
          2   -1    0    0  502    0  0.00000000000E+00  0.00000000000E+00  0.30291184262E+04  0.30291184262E+04  0.00000000000E+00 0. -1.
          2   -1    0    0  503    0 -0.00000000000E+00 -0.00000000000E+00 -0.13791110418E+04  0.13791110418E+04  0.00000000000E+00 0. -1.
         24    2    1    2    0    0 -0.26820063107E+01  0.13038798456E+02 -0.11493913889E+02  0.80212966690E+02  0.78261143269E+02 0.  0.
         25    2    1    2    0    0 -0.23233100050E+02  0.61094448029E+02  0.22931801598E+03  0.26924414094E+03  0.12503338138E+03 0.  0.
         24    2    1    2    0    0  0.71200518829E+02 -0.98984266527E+02  0.85752203915E+02  0.16856286912E+03  0.78693083995E+02 0.  0.
        -11    1    3    3    0    0  0.35229102114E+02 -0.77603089601E+01 -0.35553516164E+01  0.36248483500E+02  0.00000000000E+00 0.  1.
         12    1    3    3    0    0 -0.37911108424E+02  0.20799107416E+02 -0.79385622725E+01  0.43964483191E+02  0.00000000000E+00 0. -1.
        -11    1    5    5    0    0 -0.49320087982E+01 -0.58850067074E+02  0.35176659990E+02  0.68739017402E+02  0.00000000000E+00 0.  1.
         12    1    5    5    0    0  0.76132527627E+02 -0.40134199453E+02  0.50575543925E+02  0.99823851718E+02  0.00000000000E+00 0. -1.
          5    1    4    4  501    0 -0.53910772517E+02  0.54745086203E+02  0.61682927735E+02  0.98642128072E+02  0.47000000000E+01 0. -1.
         -5    1    4    4    0  501  0.30677672466E+02  0.63493618263E+01  0.16763508824E+03  0.17060201286E+03  0.47000000000E+01 0. -1.
          1    1    1    2  502    0  0.73098408390E+02  0.10562599147E+03  0.26127002062E+04  0.26158559966E+04  0.00000000000E+00 0. -1.
          1    1    1    2  503    0 -0.11838382086E+03 -0.80774971426E+02 -0.12662691278E+04  0.12743534946E+04  0.00000000000E+00 0. -1.
<mgrwt>
<rscale>  0 0.11400352E+03</rscale>
<asrwt>0</asrwt>
<pdfrwt beam="1">  1        2 0.44545859E+00 0.12846409E+03</pdfrwt>
<pdfrwt beam="2">  1        2 0.20281045E+00 0.10117070E+03</pdfrwt>
<totfact> 0.76961352E+00</totfact>
</mgrwt>
</event>
<event>
13    1  0.2101801E-008  0.2094214E+03  0.7546771E-02  0.1266826E+00
          2   -1    0    0  502    0  0.00000000000E+00  0.00000000000E+00  0.22825717346E+04  0.22825717346E+04  0.00000000000E+00 0. -1.
          2   -1    0    0  503    0 -0.00000000000E+00 -0.00000000000E+00 -0.91539294724E+03  0.91539294724E+03  0.00000000000E+00 0. -1.
         24    2    1    2    0    0  0.17685691275E+03  0.92810355356E+02 -0.11481929126E+03  0.24368032124E+03  0.79400879513E+02 0.  0.
         25    2    1    2    0    0 -0.39980232093E+02 -0.46188145540E+02  0.49949531100E+03  0.51850978259E+03  0.12500026072E+03 0.  0.
         24    2    1    2    0    0  0.29891401758E+02 -0.74536569056E+02  0.46870773820E+03  0.48222495937E+03  0.80029816721E+02 0.  0.
        -13    1    3    3    0    0  0.32272877293E+02  0.57453496900E+02 -0.30518955581E+02  0.72621274875E+02  0.00000000000E+00 0.  1.
         14    1    3    3    0    0  0.14458403546E+03  0.35356858456E+02 -0.84300335680E+02  0.17105904637E+03  0.00000000000E+00 0. -1.
        -13    1    5    5    0    0  0.12424938494E+02  0.12089254143E+02  0.29510417503E+02  0.34225632259E+02  0.00000000000E+00 0.  1.
         14    1    5    5    0    0  0.17466463264E+02 -0.86625823200E+02  0.43919732070E+03  0.44799932711E+03  0.00000000000E+00 0. -1.
          5    1    4    4  501    0 -0.58433593279E+01  0.19939656382E+02  0.35742734688E+03  0.35806163303E+03  0.47000000000E+01 0. -1.
         -5    1    4    4    0  501 -0.34136872765E+02 -0.66127801921E+02  0.14206796412E+03  0.16044814956E+03  0.47000000000E+01 0. -1.
          1    1    1    2  502    0  0.50472087471E+02  0.20169766328E+02  0.12166415510E+04  0.12178550467E+04  0.00000000000E+00 0. -1.
          1    1    1    2  503    0 -0.21724016989E+03  0.77445929126E+01 -0.70284652164E+03  0.73569457190E+03  0.00000000000E+00 0. -1.
<mgrwt>
<rscale>  0 0.10668967E+03</rscale>
<asrwt>0</asrwt>
<pdfrwt beam="1">  1        2 0.33567231E+00 0.54353023E+02</pdfrwt>
<pdfrwt beam="2">  1        2 0.13461661E+00 0.20942140E+03</pdfrwt>
<totfact> 0.35850377E+01</totfact>
</mgrwt>
</event>
<event>
13    1  0.2101801E-008  0.9492213E+02  0.7546771E-02  0.1311281E+00
          2   -1    0    0  502    0  0.00000000000E+00  0.00000000000E+00  0.24231563541E+04  0.24231563541E+04  0.00000000000E+00 0. -1.
          2   -1    0    0  503    0 -0.00000000000E+00 -0.00000000000E+00 -0.26270847319E+04  0.26270847319E+04  0.00000000000E+00 0. -1.
         24    2    1    2    0    0 -0.25059224958E+03 -0.40752225058E+02 -0.63357240319E+03  0.68668765465E+03  0.75290939520E+02 0.  0.
         25    2    1    2    0    0  0.20120994477E+03  0.26883400318E+02  0.83884800791E+03  0.87207352452E+03  0.12505235982E+03 0.  0.
         24    2    1    2    0    0  0.10136544721E+03 -0.65422472961E+02 -0.14565844900E+03  0.20576458711E+03  0.81040901307E+02 0.  0.
        -11    1    5    5    0    0  0.10164852696E+03 -0.51880252909E+02 -0.81611993506E+02  0.14030146527E+03  0.00000000000E+00 0.  1.
         12    1    5    5    0    0 -0.28307974721E+00 -0.13542220053E+02 -0.64046455499E+02  0.65463121832E+02  0.00000000000E+00 0. -1.
        -13    1    3    3    0    0 -0.55712371954E+01  0.12296934370E+02 -0.23296871737E+02  0.26925777826E+02  0.00000000000E+00 0.  1.
         14    1    3    3    0    0 -0.24502101238E+03 -0.53049159428E+02 -0.61027553145E+03  0.65976187682E+03  0.00000000000E+00 0. -1.
          5    1    4    4  501    0  0.19470403993E+03  0.17617240757E+02  0.56378539049E+03  0.59673787115E+03  0.47000000000E+01 0. -1.
         -5    1    4    4    0  501  0.65059048461E+01  0.92661595612E+01  0.27506261742E+03  0.27533565337E+03  0.47000000000E+01 0. -1.
          1    1    1    2  502    0  0.78793560490E+02  0.59968230309E+01  0.15068816785E+04  0.15089522126E+04  0.00000000000E+00 0. -1.
          1    1    1    2  503    0 -0.13077670290E+03  0.73294474670E+02 -0.17704272119E+04  0.17767631071E+04  0.00000000000E+00 0. -1.
<mgrwt>
<rscale>  0 0.86607638E+02</rscale>
<asrwt>0</asrwt>
<pdfrwt beam="1">  1        2 0.35634652E+00 0.79021434E+02</pdfrwt>
<pdfrwt beam="2">  1        2 0.38633599E+00 0.94922132E+02</pdfrwt>
<totfact> 0.41629840E+00</totfact>
</mgrwt>
</event>
<event>
13    1  0.2101801E-008  0.1026355E+03  0.7546771E-02  0.1431388E+00
          2   -1    0    0  503    0  0.00000000000E+00  0.00000000000E+00  0.18315088305E+03  0.18315088305E+03  0.00000000000E+00 0. -1.
          2   -1    0    0  502    0 -0.00000000000E+00 -0.00000000000E+00 -0.15939919431E+04  0.15939919431E+04  0.00000000000E+00 0. -1.
         24    2    1    2    0    0  0.37688200322E+02 -0.10560937612E+03 -0.57791445370E+03  0.59415905162E+03  0.80412200928E+02 0.  0.
         25    2    1    2    0    0 -0.34608371680E+02  0.13518941159E+03 -0.96915619266E+02  0.21093551608E+03  0.12500895284E+03 0.  0.
         24    2    1    2    0    0  0.14532046029E+02  0.48849124242E+02 -0.36121989329E+03  0.37379271397E+03  0.81509290314E+02 0.  0.
        -13    1    5    5    0    0 -0.37649542847E-01 -0.14687085546E+02 -0.19027704488E+03  0.19084303945E+03  0.00000000000E+00 0.  1.
         14    1    5    5    0    0  0.14569695571E+02  0.63536209788E+02 -0.17094284841E+03  0.18294967451E+03  0.00000000000E+00 0. -1.
        -13    1    3    3    0    0  0.32669081783E+02 -0.11321930005E+03 -0.42676539132E+03  0.44273533633E+03  0.00000000000E+00 0.  1.
         14    1    3    3    0    0  0.50191185387E+01  0.76099239293E+01 -0.15114906238E+03  0.15142371529E+03  0.00000000000E+00 0. -1.
          5    1    4    4  501    0  0.33389512303E+02  0.10030074503E+03 -0.79647585774E+02  0.13244216438E+03  0.47000000000E+01 0.  1.
         -5    1    4    4    0  501 -0.67997883984E+02  0.34888666552E+02 -0.17268033492E+02  0.78493351698E+02  0.47000000000E+01 0.  1.
          1    1    1    2  502    0 -0.70227015127E+01  0.26113776568E+02 -0.46133458723E+03  0.46212644269E+03  0.00000000000E+00 0. -1.
          1    1    1    2  503    0 -0.10589173157E+02 -0.10454293627E+03  0.86543493407E+02  0.13612910182E+03  0.00000000000E+00 0. -1.
<mgrwt>
<rscale>  0 0.52682312E+02</rscale>
<asrwt>0</asrwt>
<pdfrwt beam="1">  1        2 0.26933954E-01 0.10263545E+03</pdfrwt>
<pdfrwt beam="2">  1        2 0.23441057E+00 0.27041591E+02</pdfrwt>
<totfact> 0.48338442E+02</totfact>
</mgrwt>
</event>
<event>
13    1  0.2101801E-008  0.3831376E+02  0.7546771E-02  0.1588480E+00
         -1   -1    0    0    0  501 -0.00000000000E+00  0.00000000000E+00  0.22849907266E+04  0.22849907266E+04  0.00000000000E+00 0.  1.
          2   -1    0    0  503    0  0.00000000000E+00 -0.00000000000E+00 -0.81845807485E+03  0.81845807485E+03  0.00000000000E+00 0. -1.
         24    2    1    2    0    0  0.14857977777E+02 -0.31237897764E+03  0.62297697014E+03  0.70227161939E+03  0.85344811763E+02 0.  0.
         25    2    1    2    0    0  0.44850461502E+02 -0.63762077779E+02  0.98278437539E+02  0.17708837635E+03  0.12499790116E+03 0.  0.
         24    2    1    2    0    0 -0.35395520035E+02  0.39235475748E+03  0.45850552416E+03  0.60996167747E+03  0.81429931457E+02 0.  0.
        -13    1    5    5    0    0 -0.23204496497E+02  0.81214571567E+02  0.14685898041E+03  0.16941610142E+03  0.00000000000E+00 0.  1.
         14    1    5    5    0    0 -0.12191023538E+02  0.31114018592E+03  0.31164654375E+03  0.44054557605E+03  0.00000000000E+00 0. -1.
        -13    1    3    3    0    0  0.38721383070E+02 -0.20718664509E+03  0.34744852097E+03  0.40638174926E+03  0.00000000000E+00 0.  1.
         14    1    3    3    0    0 -0.23863405293E+02 -0.10519233256E+03  0.27552844917E+03  0.29588987013E+03  0.00000000000E+00 0. -1.
          5    1    4    4  502    0 -0.13828806845E+02 -0.12028448740E+02 -0.24790019043E+02  0.31185806419E+02  0.47000000000E+01 0.  1.
         -5    1    4    4    0  502  0.58679268347E+02 -0.51733629039E+02  0.12306845658E+03  0.14590256993E+03  0.47000000000E+01 0.  1.
          1    1    1    2  503    0 -0.10418021613E+02 -0.36877101370E+02 -0.66296122981E+03  0.66406780377E+03  0.00000000000E+00 0. -1.
         -2    1    1    2    0  501 -0.13894897630E+02  0.20663399309E+02  0.94973294971E+03  0.95005932447E+03  0.00000000000E+00 0.  1.
<mgrwt>
<rscale>  0 0.30887522E+02</rscale>
<asrwt>0</asrwt>
<pdfrwt beam="2">  1        2 0.12036148E+00 0.38313761E+02</pdfrwt>
<pdfrwt beam="1">  1       -1 0.33602805E+00 0.24900688E+02</pdfrwt>
<totfact> 0.14648979E+00</totfact>
</mgrwt>
</event>
<event>
13    1  0.2101801E-008  0.1666840E+03  0.7546771E-02  0.1367457E+00
          2   -1    0    0  502    0  0.00000000000E+00  0.00000000000E+00  0.22623945255E+04  0.22623945255E+04  0.00000000000E+00 0. -1.
          2   -1    0    0  503    0 -0.00000000000E+00 -0.00000000000E+00 -0.60890679864E+03  0.60890679864E+03  0.00000000000E+00 0. -1.
         24    2    1    2    0    0 -0.20839801018E+03 -0.30479662551E+03  0.30450250608E+02  0.37949078423E+03  0.82190777957E+02 0.  0.
         25    2    1    2    0    0 -0.15659618400E+02  0.18038596083E+03  0.81825437488E+03  0.84731984567E+03  0.12500552123E+03 0.  0.
         24    2    1    2    0    0  0.50804310694E+02  0.18879499974E+03 -0.15987230425E+03  0.26530648205E+03  0.81263434829E+02 0.  0.
        -11    1    5    5    0    0  0.81266455670E+01 -0.49461174502E+01 -0.21265323823E+02  0.23296361160E+02  0.00000000000E+00 0.  1.
         12    1    5    5    0    0  0.42677665127E+02  0.19374111719E+03 -0.13860698042E+03  0.24201012089E+03  0.00000000000E+00 0. -1.
        -11    1    3    3    0    0 -0.14020522135E+02 -0.47215418280E+02  0.28271849742E+02  0.56790564817E+02  0.00000000000E+00 0.  1.
         12    1    3    3    0    0 -0.19437748805E+03 -0.25758120723E+03  0.21784008656E+01  0.32270021942E+03  0.00000000000E+00 0. -1.
          5    1    4    4  501    0 -0.46941960764E+02  0.13581343067E+03  0.72592250871E+03  0.74002325253E+03  0.47000000000E+01 0. -1.
         -5    1    4    4    0  501  0.31282342363E+02  0.44572530163E+02  0.92331866169E+02  0.10729659314E+03  0.47000000000E+01 0. -1.
          1    1    1    2  502    0  0.11825344979E+02 -0.24985486480E+02  0.11384206594E+04  0.11387562123E+04  0.00000000000E+00 0. -1.
          1    1    1    2  503    0  0.16142797291E+03 -0.39398848575E+02 -0.17376525378E+03  0.24042799989E+03  0.00000000000E+00 0. -1.
<mgrwt>
<rscale>  0 0.67879154E+02</rscale>
<asrwt>0</asrwt>
<pdfrwt beam="1">  1        2 0.33270507E+00 0.27642600E+02</pdfrwt>
<pdfrwt beam="2">  1        2 0.89545118E-01 0.16668402E+03</pdfrwt>
<totfact> 0.66265977E+01</totfact>
</mgrwt>
</event>
<event>
13    1  0.2101801E-008  0.1070885E+03  0.7546771E-02  0.1326053E+00
          2   -1    0    0  503    0  0.00000000000E+00  0.00000000000E+00  0.22043482930E+04  0.22043482930E+04  0.00000000000E+00 0. -1.
          2   -1    0    0  502    0 -0.00000000000E+00 -0.00000000000E+00 -0.15876276128E+04  0.15876276128E+04  0.00000000000E+00 0. -1.
         24    2    1    2    0    0 -0.15619560666E+02  0.41953027656E+02 -0.10826652571E+03  0.14141425194E+03  0.79197997816E+02 0.  0.
         25    2    1    2    0    0 -0.74954247806E+02 -0.11021343079E+03  0.70967256242E+03  0.73282218539E+03  0.12501227920E+03 0.  0.
         24    2    1    2    0    0 -0.16574913191E+02  0.23455650205E+02 -0.34268939249E+02  0.91915203218E+02  0.80306594446E+02 0.  0.
        -11    1    3    3    0    0 -0.43369274590E+01  0.40735662831E+02 -0.11896339869E+03  0.12581928864E+03  0.00000000000E+00 0.  1.
         12    1    3    3    0    0 -0.11282633207E+02  0.12173648245E+01  0.10696872972E+02  0.15594963308E+02  0.00000000000E+00 0. -1.
        -11    1    5    5    0    0 -0.48116072273E+02  0.21841679689E+02 -0.15042475306E+02  0.54940799466E+02  0.00000000000E+00 0.  1.
         12    1    5    5    0    0  0.31541159082E+02  0.16139705164E+01 -0.19226463943E+02  0.36974403752E+02  0.00000000000E+00 0. -1.
          5    1    4    4  501    0 -0.75670837044E+02 -0.13116777923E+03  0.67680209967E+03  0.69355189713E+03  0.47000000000E+01 0. -1.
         -5    1    4    4    0  501  0.71658923847E+00  0.20954348441E+02  0.32870462752E+02  0.39270288263E+02  0.47000000000E+01 0. -1.
          1    1    1    2  502    0  0.78153912849E+02  0.98889997715E+02 -0.13846015420E+04  0.13903268306E+04  0.00000000000E+00 0. -1.
          1    1    1    2  503    0  0.28994808814E+02 -0.54085244782E+02  0.14341851248E+04  0.14354974347E+04  0.00000000000E+00 0. -1.
<mgrwt>
<rscale>  0 0.81066031E+02</rscale>
<asrwt>0</asrwt>
<pdfrwt beam="1">  1        2 0.32416887E+00 0.61367032E+02</pdfrwt>
<pdfrwt beam="2">  1        2 0.23347465E+00 0.10708847E+03</pdfrwt>
<totfact> 0.17363538E+01</totfact>
</mgrwt>
</event>
<event>
13    1  0.2101801E-008  0.2971549E+03  0.7546771E-02  0.1259526E+00
          2   -1    0    0  502    0  0.00000000000E+00  0.00000000000E+00  0.14086421005E+04  0.14086421005E+04  0.00000000000E+00 0. -1.
          2   -1    0    0  503    0 -0.00000000000E+00 -0.00000000000E+00 -0.10772353294E+04  0.10772353294E+04  0.00000000000E+00 0. -1.
         24    2    1    2    0    0  0.18576988738E+03 -0.27986401903E+03 -0.46337660119E+03  0.57766519695E+03  0.78389317114E+02 0.  0.
         25    2    1    2    0    0  0.64395250411E+02  0.36901630129E+03  0.18345564857E+03  0.43543290570E+03  0.12500424587E+03 0.  0.
         24    2    1    2    0    0 -0.13023260947E+03  0.21289557797E+03  0.10651402109E+03  0.28331846822E+03  0.81480415188E+02 0.  0.
        -11    1    3    3    0    0  0.15106325527E+03 -0.16580016646E+03 -0.32680723296E+03  0.39637453224E+03  0.00000000000E+00 0.  1.
         12    1    3    3    0    0  0.34706632118E+02 -0.11406385257E+03 -0.13656936822E+03  0.18129066472E+03  0.00000000000E+00 0. -1.
        -13    1    5    5    0    0  0.80961953174E+01  0.17399602058E+02 -0.39351236482E+01  0.19590296795E+02  0.00000000000E+00 0.  1.
         14    1    5    5    0    0 -0.13832880478E+03  0.19549597591E+03  0.11044914474E+03  0.26372817143E+03  0.00000000000E+00 0. -1.
          5    1    4    4  501    0 -0.22785003700E+02  0.22463077188E+03  0.11389045547E+03  0.25292541572E+03  0.47000000000E+01 0. -1.
         -5    1    4    4    0  501  0.87180254112E+02  0.14438552941E+03  0.69565193095E+02  0.18250748998E+03  0.47000000000E+01 0. -1.
          1    1    1    2  502    0  0.12245667776E+02 -0.39274617591E+02  0.78331124710E+03  0.78439082210E+03  0.00000000000E+00 0. -1.
          1    1    1    2  503    0 -0.13217819610E+03 -0.26277324263E+03 -0.27849754450E+03  0.40507003699E+03  0.00000000000E+00 0. -1.
<mgrwt>
<rscale>  0 0.11056573E+03</rscale>
<asrwt>0</asrwt>
<pdfrwt beam="1">  1        2 0.20715325E+00 0.41139421E+02</pdfrwt>
<pdfrwt beam="2">  1        2 0.15841696E+00 0.29715491E+03</pdfrwt>
<totfact> 0.74421076E+01</totfact>
</mgrwt>
</event>
<event>
13    1  0.2101801E-008  0.9535667E+02  0.7546771E-02  0.1354244E+00
          2   -1    0    0  502    0  0.00000000000E+00  0.00000000000E+00  0.26925074951E+04  0.26925074951E+04  0.00000000000E+00 0. -1.
          2   -1    0    0  503    0 -0.00000000000E+00 -0.00000000000E+00 -0.61774231182E+03  0.61774231182E+03  0.00000000000E+00 0. -1.
         24    2    1    2    0    0  0.11420919175E+02  0.73064920000E+02 -0.11422240494E+03  0.15786030986E+03  0.80026243871E+02 0.  0.
         25    2    1    2    0    0  0.41738210359E+01  0.49374942338E+02  0.56321083052E+03  0.57903587473E+03  0.12498319449E+03 0.  0.
         24    2    1    2    0    0 -0.57786564077E+02 -0.94128232542E+01  0.20217112361E+02  0.99889607043E+02  0.78366534526E+02 0.  0.
        -11    1    5    5    0    0 -0.35341169613E+02 -0.40083141284E+02 -0.59174828596E+01  0.53764980128E+02  0.00000000000E+00 0.  1.
         12    1    5    5    0    0 -0.22445394464E+02  0.30670318030E+02  0.26134595221E+02  0.46124626915E+02  0.00000000000E+00 0. -1.
        -13    1    3    3    0    0  0.44666382606E+01  0.48011684538E+01  0.12294399383E+02  0.13933927374E+02  0.00000000000E+00 0.  1.
         14    1    3    3    0    0  0.69542809148E+01  0.68263751546E+02 -0.12651680433E+03  0.14392638249E+03  0.00000000000E+00 0. -1.
          5    1    4    4  501    0 -0.50843576702E+02  0.61050183144E+01  0.12372302171E+03  0.13398438954E+03  0.47000000000E+01 0. -1.
         -5    1    4    4    0  501  0.55017397738E+02  0.43269924024E+02  0.43948780881E+03  0.44505148519E+03  0.47000000000E+01 0. -1.
          1    1    1    2  502    0  0.39928388065E+02  0.36335150045E+02  0.20262864356E+04  0.20270054856E+04  0.00000000000E+00 0. -1.
          1    1    1    2  503    0  0.22634358006E+01 -0.14936218913E+03 -0.42072679029E+03  0.44645852971E+03  0.00000000000E+00 0. -1.
<mgrwt>
<rscale>  0 0.71749234E+02</rscale>
<asrwt>0</asrwt>
<pdfrwt beam="1">  1        2 0.39595698E+00 0.53986288E+02</pdfrwt>
<pdfrwt beam="2">  1        2 0.90844459E-01 0.95356668E+02</pdfrwt>
<totfact> 0.37440710E+01</totfact>
</mgrwt>
</event>
<event>
13    1  0.2101801E-008  0.4910826E+02  0.7546771E-02  0.1496261E+00
          2   -1    0    0  503    0  0.00000000000E+00  0.00000000000E+00  0.15023542238E+04  0.15023542238E+04  0.00000000000E+00 0. -1.
          2   -1    0    0  502    0 -0.00000000000E+00 -0.00000000000E+00 -0.89388356106E+03  0.89388356106E+03  0.00000000000E+00 0. -1.
         24    2    1    2    0    0  0.30281904205E+02  0.52762312230E+02  0.11649041435E+03  0.15433435780E+03  0.80921085298E+02 0.  0.
         25    2    1    2    0    0 -0.12559307448E+03 -0.79856838071E+02  0.15602692072E+03  0.24923623064E+03  0.12499425478E+03 0.  0.
         24    2    1    2    0    0  0.10518072191E+03  0.17257445594E+02  0.66281250156E+03  0.67553635661E+03  0.75287138275E+02 0.  0.
        -11    1    5    5    0    0  0.13915254708E+02  0.25431361632E+02  0.29743095568E+03  0.29884036184E+03  0.00000000000E+00 0.  1.
         12    1    5    5    0    0  0.91265467203E+02 -0.81739160383E+01  0.36538154588E+03  0.37669599478E+03  0.00000000000E+00 0. -1.
        -13    1    3    3    0    0 -0.74449651583E+01 -0.36463617884E+01 -0.86479838259E+01  0.11979611210E+02  0.00000000000E+00 0.  1.
         14    1    3    3    0    0  0.37726869363E+02  0.56408674018E+02  0.12513839818E+03  0.14235474659E+03  0.00000000000E+00 0. -1.
          5    1    4    4  501    0 -0.47132431624E+02 -0.96392088406E+02  0.56547452816E+02  0.12137794379E+03  0.47000000000E+01 0. -1.
         -5    1    4    4    0  501 -0.78460642856E+02  0.16535250335E+02  0.99479467905E+02  0.12785828685E+03  0.47000000000E+01 0. -1.
          1    1    1    2  502    0 -0.30047990081E+02  0.38875037513E+02 -0.82062794034E+03  0.82209754088E+03  0.00000000000E+00 0. -1.
          1    1    1    2  503    0  0.20178438445E+02 -0.29037957265E+02  0.49376876647E+03  0.49503329896E+03  0.00000000000E+00 0. -1.
<mgrwt>
<rscale>  0 0.41671305E+02</rscale>
<asrwt>0</asrwt>
<pdfrwt beam="1">  1        2 0.22093444E+00 0.35360604E+02</pdfrwt>
<pdfrwt beam="2">  1        2 0.13145347E+00 0.49108258E+02</pdfrwt>
<totfact> 0.94669555E+01</totfact>
</mgrwt>
</event>
<event>
13    1  0.2101801E-008  0.9270659E+02  0.7546771E-02  0.1331830E+00
          2   -1    0    0  503    0  0.00000000000E+00  0.00000000000E+00  0.14235428555E+04  0.14235428555E+04  0.00000000000E+00 0. -1.
          2   -1    0    0  502    0 -0.00000000000E+00 -0.00000000000E+00 -0.11751206317E+04  0.11751206317E+04  0.00000000000E+00 0. -1.
         24    2    1    2    0    0 -0.28453206186E+03 -0.16414939453E+03 -0.49909373623E+03  0.60276190845E+03  0.79522592924E+02 0.  0.
         25    2    1    2    0    0  0.21366527601E+03  0.22582417171E+03  0.20629984685E+03  0.39346428693E+03  0.12492042100E+03 0.  0.
         24    2    1    2    0    0  0.61437997531E+02  0.38269430441E+01  0.46606486004E+02  0.11287004389E+03  0.82329880583E+02 0.  0.
        -11    1    5    5    0    0  0.62702833141E+02  0.29718308951E+02  0.13278842459E+02  0.70648077312E+02  0.00000000000E+00 0.  1.
         12    1    5    5    0    0 -0.12648356098E+01 -0.25891365907E+02  0.33327643545E+02  0.42221966580E+02  0.00000000000E+00 0. -1.
        -13    1    3    3    0    0 -0.10161706937E+03 -0.65129668894E+02 -0.11909709573E+03  0.16956420839E+03  0.00000000000E+00 0.  1.
         14    1    3    3    0    0 -0.18291499249E+03 -0.99019725635E+02 -0.37999664050E+03  0.43319770006E+03  0.00000000000E+00 0. -1.
          5    1    4    4  501    0  0.15289901868E+02  0.20182983942E+02 -0.16949424083E+02  0.30830292192E+02  0.47000000000E+01 0. -1.
         -5    1    4    4    0  501  0.19837537414E+03  0.20564118776E+03  0.22324927093E+03  0.36263399474E+03  0.47000000000E+01 0. -1.
          1    1    1    2  502    0  0.66963185126E+02  0.73844316690E+01 -0.49301011294E+03  0.49759176988E+03  0.00000000000E+00 0. -1.
          1    1    1    2  503    0 -0.57534396808E+02 -0.72886151890E+02  0.98761974009E+03  0.99197547801E+03  0.00000000000E+00 0. -1.
<mgrwt>
<rscale>  0 0.79028861E+02</rscale>
<asrwt>0</asrwt>
<pdfrwt beam="1">  1        2 0.20934454E+00 0.92706586E+02</pdfrwt>
<pdfrwt beam="2">  1        2 0.17281186E+00 0.67369118E+02</pdfrwt>
<totfact> 0.65846978E+01</totfact>
</mgrwt>
</event>
<event>
13    1  0.2101801E-008  0.9524348E+02  0.7546771E-02  0.1367444E+00
          2   -1    0    0  503    0  0.00000000000E+00  0.00000000000E+00  0.12226896965E+04  0.12226896965E+04  0.00000000000E+00 0. -1.
          2   -1    0    0  502    0 -0.00000000000E+00 -0.00000000000E+00 -0.11342048743E+04  0.11342048743E+04  0.00000000000E+00 0. -1.
         24    2    1    2    0    0 -0.11450439539E+03  0.26841260697E+03 -0.47558122891E+03  0.56094583784E+03  0.57672727964E+02 0.  0.
         25    2    1    2    0    0  0.25760146298E+03 -0.22088326776E+03  0.33252764184E+03  0.49127121260E+03  0.12499936015E+03 0.  0.
         24    2    1    2    0    0 -0.11593989527E+03 -0.79136271100E+01 -0.70960361878E+02  0.15827755057E+03  0.80695261614E+02 0.  0.
        -11    1    5    5    0    0 -0.23526681666E+02  0.22541168348E+02  0.73212737963E+01  0.33394761126E+02  0.00000000000E+00 0.  1.
         12    1    5    5    0    0 -0.92413213600E+02 -0.30454795458E+02 -0.78281635674E+02  0.12488278944E+03  0.00000000000E+00 0. -1.
        -13    1    3    3    0    0 -0.80482268118E+02  0.12881465158E+03 -0.21278471259E+03  0.26143439684E+03  0.00000000000E+00 0.  1.
         14    1    3    3    0    0 -0.34022127271E+02  0.13959795539E+03 -0.26279651633E+03  0.29951144100E+03  0.00000000000E+00 0. -1.
          5    1    4    4  501    0  0.83241267969E+02 -0.10085047582E+02  0.11122812944E+03  0.13937217676E+03  0.47000000000E+01 0. -1.
         -5    1    4    4    0  501  0.17436019501E+03 -0.21079822018E+03  0.22129951240E+03  0.35189903584E+03  0.47000000000E+01 0. -1.
          1    1    1    2  502    0 -0.44591802172E+02 -0.84747286130E+02 -0.41569277229E+03  0.42658060465E+03  0.00000000000E+00 0. -1.
          1    1    1    2  503    0  0.17434629850E+02  0.45131574035E+02  0.71819154345E+03  0.71981936510E+03  0.00000000000E+00 0. -1.
<mgrwt>
<rscale>  0 0.67882822E+02</rscale>
<asrwt>0</asrwt>
<pdfrwt beam="1">  1        2 0.17980731E+00 0.48382076E+02</pdfrwt>
<pdfrwt beam="2">  1        2 0.16679483E+00 0.95243485E+02</pdfrwt>
<totfact> 0.89561661E+01</totfact>
</mgrwt>
</event>
<event>
13    1  0.2101801E-008  0.1009635E+03  0.7546771E-02  0.1413470E+00
          2   -1    0    0  502    0  0.00000000000E+00  0.00000000000E+00  0.11663398624E+04  0.11663398624E+04  0.00000000000E+00 0. -1.
          2   -1    0    0  503    0 -0.00000000000E+00 -0.00000000000E+00 -0.23754398469E+04  0.23754398469E+04  0.00000000000E+00 0. -1.
         24    2    1    2    0    0 -0.64260489613E+02 -0.86877321729E+02 -0.20483375991E+03  0.24542581325E+03  0.81239651972E+02 0.  0.
         25    2    1    2    0    0 -0.33080214013E+02  0.12599064773E+03  0.95965622961E+02  0.20445919473E+03  0.12500487048E+03 0.  0.
         24    2    1    2    0    0  0.84821161301E+02  0.29711502479E+02 -0.89439944075E+02  0.14961732317E+03  0.79425669733E+02 0.  0.
        -11    1    5    5    0    0  0.47985384898E+02 -0.12335078972E+02 -0.78237704094E+02  0.92606099577E+02  0.00000000000E+00 0.  1.
         12    1    5    5    0    0  0.36835776403E+02  0.42046581451E+02 -0.11202239981E+02  0.57011223593E+02  0.00000000000E+00 0. -1.
        -11    1    3    3    0    0  0.15911550618E+02 -0.25132440911E+02 -0.75920704418E+02  0.81539992571E+02  0.00000000000E+00 0.  1.
         12    1    3    3    0    0 -0.80172040231E+02 -0.61744880818E+02 -0.12891305549E+03  0.16388582068E+03  0.00000000000E+00 0. -1.
          5    1    4    4  501    0 -0.19747723284E+02 -0.66641008046E+01  0.63727147719E+02  0.67213258892E+02  0.47000000000E+01 0. -1.
         -5    1    4    4    0  501 -0.13332490729E+02  0.13265474854E+03  0.32238475242E+02  0.13724593584E+03  0.47000000000E+01 0. -1.
          1    1    1    2  502    0 -0.10906885537E+02  0.29589669775E+02  0.96419031241E+03  0.96470589676E+03  0.00000000000E+00 0. -1.
          1    1    1    2  503    0  0.23426427862E+02 -0.98414498260E+02 -0.19749822159E+04  0.19775714814E+04  0.00000000000E+00 0. -1.
<mgrwt>
<rscale>  0 0.56426660E+02</rscale>
<asrwt>0</asrwt>
<pdfrwt beam="1">  1        2 0.17152057E+00 0.31535832E+02</pdfrwt>
<pdfrwt beam="2">  1        2 0.34932938E+00 0.10096350E+03</pdfrwt>
<totfact> 0.23864536E+01</totfact>
</mgrwt>
</event>
<event>
13    1  0.2101801E-008  0.6907265E+02  0.7546771E-02  0.1417957E+00
          2   -1    0    0  502    0  0.00000000000E+00  0.00000000000E+00  0.28768848192E+04  0.28768848192E+04  0.00000000000E+00 0. -1.
          2   -1    0    0  503    0 -0.00000000000E+00 -0.00000000000E+00 -0.28013812224E+04  0.28013812224E+04  0.00000000000E+00 0. -1.
         24    2    1    2    0    0 -0.60275909952E+02 -0.43926232984E+02 -0.47339845652E+03  0.48539354080E+03  0.77059013410E+02 0.  0.
         25    2    1    2    0    0  0.61171983450E+02 -0.73178799308E+02  0.65058332312E+02  0.17015771126E+03  0.12499564740E+03 0.  0.
         24    2    1    2    0    0 -0.10407901896E+03  0.81687782074E+02 -0.95912847829E+03  0.97147456308E+03  0.79561629705E+02 0.  0.
        -11    1    3    3    0    0 -0.38486214063E+02 -0.16579620060E+02 -0.41654905791E+03  0.41865163337E+03  0.00000000000E+00 0.  1.
         12    1    3    3    0    0 -0.21789695889E+02 -0.27346612924E+02 -0.56849398613E+02  0.66741907434E+02  0.00000000000E+00 0. -1.
        -11    1    5    5    0    0 -0.52813997011E+02  0.79184507038E+02 -0.75572305579E+03  0.76169340386E+03  0.00000000000E+00 0.  1.
         12    1    5    5    0    0 -0.51265021947E+02  0.25032750363E+01 -0.20340542250E+03  0.20978115922E+03  0.00000000000E+00 0. -1.
          5    1    4    4  501    0  0.99220345722E+02 -0.43980349803E+02  0.39358919329E+02  0.11554290417E+03  0.47000000000E+01 0.  1.
         -5    1    4    4    0  501 -0.38048362272E+02 -0.29198449505E+02  0.25699412983E+02  0.54614807083E+02  0.47000000000E+01 0.  1.
          1    1    1    2  502    0  0.68676915157E+02  0.72814359189E+01  0.27462919739E+04  0.27471601963E+04  0.00000000000E+00 0. -1.
          1    1    1    2  503    0  0.34506030304E+02  0.28135814299E+02 -0.13033197746E+04  0.13040800302E+04  0.00000000000E+00 0. -1.
<mgrwt>
<rscale>  0 0.55455530E+02</rscale>
<asrwt>0</asrwt>
<pdfrwt beam="1">  1        2 0.42307130E+00 0.69072648E+02</pdfrwt>
<pdfrwt beam="2">  1        2 0.41196783E+00 0.44522917E+02</pdfrwt>
<totfact> 0.23036524E+00</totfact>
</mgrwt>
</event>
<event>
13    1  0.2101801E-008  0.1946689E+03  0.7546771E-02  0.1253560E+00
          2   -1    0    0  502    0  0.00000000000E+00  0.00000000000E+00  0.59126527910E+03  0.59126527910E+03  0.00000000000E+00 0. -1.
          2   -1    0    0  503    0 -0.00000000000E+00 -0.00000000000E+00 -0.18087545589E+04  0.18087545589E+04  0.00000000000E+00 0. -1.
         24    2    1    2    0    0 -0.27671968082E+02 -0.16823665782E+02 -0.13749748253E+04  0.13778925669E+04  0.83566632867E+02 0.  0.
         25    2    1    2    0    0  0.34151255413E+02  0.23069067446E+03  0.31571084285E+03  0.41193179911E+03  0.12501989959E+03 0.  0.
         24    2    1    2    0    0 -0.35057335699E+02 -0.57333492173E+02 -0.16128009383E+03  0.19223404894E+03  0.80165546192E+02 0.  0.
        -11    1    3    3    0    0 -0.35047990201E+01  0.30719424533E+02 -0.75329787992E+03  0.75393213392E+03  0.00000000000E+00 0.  1.
         12    1    3    3    0    0 -0.24167169062E+02 -0.47543090315E+02 -0.62167694538E+03  0.62396043297E+03  0.00000000000E+00 0. -1.
        -11    1    5    5    0    0  0.11779527459E+02  0.69545444830E+01 -0.15135282369E+01  0.13762765850E+02  0.00000000000E+00 0.  1.
         12    1    5    5    0    0 -0.46836863158E+02 -0.64288036656E+02 -0.15976656559E+03  0.17847128309E+03  0.00000000000E+00 0. -1.
          5    1    4    4  501    0 -0.26080789795E+02  0.18212391005E+03  0.24919379133E+03  0.30978857604E+03  0.47000000000E+01 0.  1.
         -5    1    4    4    0  501  0.60232045208E+02  0.48566764410E+02  0.66517051519E+02  0.10214322306E+03  0.47000000000E+01 0.  1.
          1    1    1    2  502    0  0.95181783250E+02 -0.15755706359E+03  0.16226074771E+03  0.24538204986E+03  0.00000000000E+00 0. -1.
          1    1    1    2  503    0 -0.66603734882E+02  0.10235470867E+01 -0.15920595120E+03  0.17257937318E+03  0.00000000000E+00 0. -1.
<mgrwt>
<rscale>  0 0.11387365E+03</rscale>
<asrwt>0</asrwt>
<pdfrwt beam="1">  1        2 0.86950776E-01 0.19466892E+03</pdfrwt>
<pdfrwt beam="2">  1        2 0.26599332E+00 0.66611599E+02</pdfrwt>
<totfact> 0.99803277E+01</totfact>
</mgrwt>
</event>
<event>
13    1  0.2101801E-008  0.3859492E+03  0.7546771E-02  0.1135266E+00
         -1   -1    0    0    0  501 -0.00000000000E+00  0.00000000000E+00  0.18079671102E+04  0.18079671102E+04  0.00000000000E+00 0.  1.
          2   -1    0    0  503    0  0.00000000000E+00 -0.00000000000E+00 -0.26406336056E+04  0.26406336056E+04  0.00000000000E+00 0. -1.
         24    2    1    2    0    0 -0.12198025450E+03 -0.57883849766E+02 -0.15780180408E+03  0.22211193040E+03  0.78756445463E+02 0.  0.
         25    2    1    2    0    0 -0.85590228064E+02 -0.52295987940E+03 -0.16141023407E+03  0.56788243079E+03  0.12499787570E+03 0.  0.
         24    2    1    2    0    0  0.91302269916E+01 -0.24989668359E+03 -0.54301912004E+03  0.60303862702E+03  0.79082914981E+02 0.  0.
        -11    1    5    5    0    0  0.72039047197E+00  0.60571270758E+01 -0.15022977141E+02  0.16214117090E+02  0.00000000000E+00 0.  1.
         12    1    5    5    0    0  0.84098365196E+01 -0.25595381066E+03 -0.52799614290E+03  0.58682450993E+03  0.00000000000E+00 0. -1.
        -11    1    3    3    0    0 -0.14173919885E+02  0.14138004416E+02 -0.30881256689E+01  0.20256349472E+02  0.00000000000E+00 0.  1.
         12    1    3    3    0    0 -0.10780633461E+03 -0.72021854182E+02 -0.15471367842E+03  0.20185558093E+03  0.00000000000E+00 0. -1.
          5    1    4    4  502    0 -0.90292597399E+01 -0.23842268860E+03 -0.12936995013E+03  0.27145087948E+03  0.47000000000E+01 0. -1.
         -5    1    4    4    0  502 -0.76560968325E+02 -0.28453719080E+03 -0.32040283946E+02  0.29643155131E+03  0.47000000000E+01 0. -1.
          1    1    1    2  503    0  0.11036275459E+03  0.74444037560E+03 -0.14166311389E+04  0.16041244323E+04  0.00000000000E+00 0. -1.
         -2    1    1    2    0  501  0.88077500981E+02  0.86300037158E+02  0.14461958017E+04  0.14514432953E+04  0.00000000000E+00 0.  1.
<mgrwt>
<rscale>  0 0.21815449E+03</rscale>
<asrwt>0</asrwt>
<pdfrwt beam="2">  1        2 0.38832847E+00 0.38594925E+03</pdfrwt>
<pdfrwt beam="1">  1       -1 0.26587752E+00 0.12330995E+03</pdfrwt>
<totfact> 0.29748121E-01</totfact>
</mgrwt>
</event>
<event>
13    1  0.2101801E-008  0.1421145E+03  0.7546771E-02  0.1295341E+00
         -1   -1    0    0    0  501  0.00000000000E+00  0.00000000000E+00  0.12153978564E+04  0.12153978564E+04  0.00000000000E+00 0.  1.
         -1   -1    0    0    0  502 -0.00000000000E+00 -0.00000000000E+00 -0.55814055503E+03  0.55814055503E+03  0.00000000000E+00 0.  1.
         24    2    1    2    0    0 -0.80005675780E+01  0.54139388688E+02 -0.10292694201E+03  0.14243275817E+03  0.81841631933E+02 0.  0.
         25    2    1    2    0    0 -0.20620989416E+03  0.17890648789E+02  0.94714867608E+03  0.97752664169E+03  0.12500049942E+03 0.  0.
         24    2    1    2    0    0 -0.38774275552E+02 -0.33771197361E+02  0.54304781255E+02  0.11020263354E+03  0.80942405177E+02 0.  0.
        -13    1    5    5    0    0 -0.11647908049E+00  0.24731745820E+02  0.21569798393E+02  0.32816596737E+02  0.00000000000E+00 0.  1.
         14    1    5    5    0    0 -0.38657796471E+02 -0.58502943181E+02  0.32734982862E+02  0.77386036801E+02  0.00000000000E+00 0. -1.
        -13    1    3    3    0    0  0.15249729651E+02  0.65706776385E+02 -0.92422949646E+02  0.11441999973E+03  0.00000000000E+00 0.  1.
         14    1    3    3    0    0 -0.23250297229E+02 -0.11567387698E+02 -0.10503992367E+02  0.28012758433E+02  0.00000000000E+00 0. -1.
          5    1    4    4  503    0 -0.20297986199E+01 -0.26611744790E+02  0.19497057012E+03  0.19684490914E+03  0.47000000000E+01 0. -1.
         -5    1    4    4    0  503 -0.20418009554E+03  0.44502393579E+02  0.75217810596E+03  0.78068173255E+03  0.47000000000E+01 0. -1.
         -2    1    1    2    0  501  0.43753739003E+02  0.42630309101E+02  0.11044595450E+03  0.12621426939E+03  0.00000000000E+00 0.  1.
         -2    1    1    2    0  502  0.20923099828E+03 -0.80889149217E+02 -0.35171516850E+03  0.41716210861E+03  0.00000000000E+00 0.  1.
<mgrwt>
<rscale>  0 0.93174455E+02</rscale>
<asrwt>0</asrwt>
<pdfrwt beam="1">  1       -1 0.17873498E+00 0.61087911E+02</pdfrwt>
<pdfrwt beam="2">  1       -1 0.82079493E-01 0.14211452E+03</pdfrwt>
<totfact> 0.35380965E+00</totfact>
</mgrwt>
</event>
<event>
13    1  0.2101801E-008  0.7373317E+02  0.7546771E-02  0.1403371E+00
          2   -1    0    0  503    0  0.00000000000E+00  0.00000000000E+00  0.21301532692E+04  0.21301532692E+04  0.00000000000E+00 0. -1.
          2   -1    0    0  502    0 -0.00000000000E+00 -0.00000000000E+00 -0.37152660981E+03  0.37152660981E+03  0.00000000000E+00 0. -1.
         24    2    1    2    0    0 -0.24858432380E+02  0.23831487503E+02 -0.20145706673E+03  0.21905687424E+03  0.78835797466E+02 0.  0.
         25    2    1    2    0    0  0.12122012258E+03 -0.38160700586E+02  0.11440347485E+04  0.11578389525E+04  0.12499990788E+03 0.  0.
         24    2    1    2    0    0 -0.45521356827E+01 -0.52941710049E+02 -0.38060574173E+02  0.10394265523E+03  0.80820304797E+02 0.  0.
        -13    1    5    5    0    0  0.85026884250E+01  0.20327448989E+02 -0.11991935900E+02  0.25086000468E+02  0.00000000000E+00 0.  1.
         14    1    5    5    0    0 -0.13054824108E+02 -0.73269159038E+02 -0.26068638273E+02  0.78856654761E+02  0.00000000000E+00 0. -1.
        -13    1    3    3    0    0 -0.77329064018E+01  0.52123052332E+02 -0.13198497436E+03  0.14211489676E+03  0.00000000000E+00 0.  1.
         14    1    3    3    0    0 -0.17125525978E+02 -0.28291564828E+02 -0.69472092371E+02  0.76941977482E+02  0.00000000000E+00 0. -1.
          5    1    4    4  501    0  0.51043805914E+02  0.13770331192E+02  0.13554389140E+03  0.14556554757E+03  0.47000000000E+01 0.  1.
         -5    1    4    4    0  501  0.70176316662E+02 -0.51931031777E+02  0.10084908571E+04  0.10122734049E+04  0.47000000000E+01 0.  1.
          1    1    1    2  502    0 -0.46274062169E+02  0.56766564983E+02 -0.66573250754E+02  0.98973377459E+02  0.00000000000E+00 0. -1.
          1    1    1    2  503    0 -0.45535492344E+02  0.10504358149E+02  0.92068280256E+03  0.92186801959E+03  0.00000000000E+00 0. -1.
<mgrwt>
<rscale>  0 0.58699687E+02</rscale>
<asrwt>0</asrwt>
<pdfrwt beam="1">  1        2 0.31325783E+00 0.46731388E+02</pdfrwt>
<pdfrwt beam="2">  1        2 0.54636267E-01 0.73733169E+02</pdfrwt>
<totfact> 0.12238092E+02</totfact>
</mgrwt>
</event>
<event>
13    1  0.2101801E-008  0.9518551E+02  0.7546771E-02  0.1297139E+00
          2   -1    0    0  502    0  0.00000000000E+00  0.00000000000E+00  0.18389843892E+04  0.18389843892E+04  0.00000000000E+00 0. -1.
          2   -1    0    0  503    0 -0.00000000000E+00 -0.00000000000E+00 -0.11058628379E+04  0.11058628379E+04  0.00000000000E+00 0. -1.
         24    2    1    2    0    0  0.88016634759E+02 -0.12507419446E+02 -0.46622323315E+03  0.48187335691E+03  0.83273437719E+02 0.  0.
         25    2    1    2    0    0 -0.12295293711E+03  0.21739782499E+02 -0.29368936612E+02  0.17910547310E+03  0.12500477259E+03 0.  0.
         24    2    1    2    0    0  0.27165748671E+02 -0.71131882632E+02  0.40134274922E+03  0.41643102018E+03  0.80876879204E+02 0.  0.
        -11    1    3    3    0    0 -0.92216958391E+01  0.90820946046E+00 -0.54280136090E+01  0.10739080515E+02  0.00000000000E+00 0.  1.
         12    1    3    3    0    0  0.97238330598E+02 -0.13415628906E+02 -0.46079521954E+03  0.47113427639E+03  0.00000000000E+00 0. -1.
        -13    1    5    5    0    0  0.19955001479E+02 -0.61322821850E+02  0.13297371377E+03  0.14778599094E+03  0.00000000000E+00 0.  1.
         14    1    5    5    0    0  0.72107471925E+01 -0.98090607815E+01  0.26836903546E+03  0.26864502925E+03  0.00000000000E+00 0. -1.
          5    1    4    4  501    0 -0.42903176937E+02 -0.28699053794E+02 -0.60241617577E+02  0.79469873337E+02  0.47000000000E+01 0. -1.
         -5    1    4    4    0  501 -0.80049760177E+02  0.50438836293E+02  0.30872680966E+02  0.99635599767E+02  0.47000000000E+01 0. -1.
          1    1    1    2  502    0 -0.81152166061E+02  0.50127120826E+02  0.13418305844E+04  0.13452166070E+04  0.00000000000E+00 0. -1.
          1    1    1    2  503    0  0.88922719744E+02  0.11772398753E+02 -0.51445961260E+03  0.52222076985E+03  0.00000000000E+00 0. -1.
<mgrwt>
<rscale>  0 0.92401338E+02</rscale>
<asrwt>0</asrwt>
<pdfrwt beam="1">  1        2 0.27043888E+00 0.95185509E+02</pdfrwt>
<pdfrwt beam="2">  1        2 0.16262689E+00 0.89698603E+02</pdfrwt>
<totfact> 0.44150874E+01</totfact>
</mgrwt>
</event>
<event>
13    1  0.2101801E-008  0.1617280E+03  0.7546771E-02  0.1322207E+00
          2   -1    0    0  502    0  0.00000000000E+00  0.00000000000E+00  0.31786619587E+04  0.31786619587E+04  0.00000000000E+00 0. -1.
          2   -1    0    0  503    0 -0.00000000000E+00 -0.00000000000E+00 -0.38538395376E+04  0.38538395376E+04  0.00000000000E+00 0. -1.
         24    2    1    2    0    0  0.38299309325E+03 -0.97790277659E+02 -0.11049355119E+04  0.11761462132E+04  0.78681519050E+02 0.  0.
         25    2    1    2    0    0 -0.16568398976E+03  0.26422056207E+03  0.67995244564E+03  0.75843504611E+03  0.12499880381E+03 0.  0.
         24    2    1    2    0    0  0.53044763238E+02 -0.22943541825E+02 -0.92703861843E+02  0.13520252461E+03  0.79659046198E+02 0.  0.
        -11    1    3    3    0    0  0.27266381163E+03 -0.64020389730E+02 -0.87755553585E+03  0.92116658807E+03  0.00000000000E+00 0.  1.
         12    1    3    3    0    0  0.11032928162E+03 -0.33769887929E+02 -0.22737997605E+03  0.25497962512E+03  0.00000000000E+00 0. -1.
        -11    1    5    5    0    0 -0.19278763342E+02 -0.16406544787E+02 -0.18317821100E+02  0.31247207838E+02  0.00000000000E+00 0.  1.
         12    1    5    5    0    0  0.72323526580E+02 -0.65369970379E+01 -0.74386040744E+02  0.10395531677E+03  0.00000000000E+00 0. -1.
          5    1    4    4  501    0 -0.12333597340E+03  0.85822948501E+02  0.26319649209E+03  0.30310365269E+03  0.47000000000E+01 0. -1.
         -5    1    4    4    0  501 -0.42348016360E+02  0.17839761357E+03  0.41675595355E+03  0.45533139342E+03  0.47000000000E+01 0. -1.
          1    1    1    2  502    0 -0.36547163431E+02  0.20787721344E+02  0.23944549236E+04  0.23948240448E+04  0.00000000000E+00 0. -1.
          1    1    1    2  503    0 -0.23380670330E+03 -0.16427446393E+03 -0.25519455744E+04  0.25678936677E+04  0.00000000000E+00 0. -1.
<mgrwt>
<rscale>  0 0.82461728E+02</rscale>
<asrwt>0</asrwt>
<pdfrwt beam="1">  1        2 0.46745029E+00 0.42045505E+02</pdfrwt>
<pdfrwt beam="2">  1        2 0.56674111E+00 0.16172803E+03</pdfrwt>
<totfact> 0.35194882E-01</totfact>
</mgrwt>
</event>
<event>
13    1  0.2101801E-008  0.5630165E+03  0.7546771E-02  0.1248375E+00
          2   -1    0    0  503    0  0.00000000000E+00  0.00000000000E+00  0.16670889532E+04  0.16670889532E+04  0.00000000000E+00 0. -1.
          2   -1    0    0  502    0 -0.00000000000E+00 -0.00000000000E+00 -0.21139612929E+04  0.21139612929E+04  0.00000000000E+00 0. -1.
         24    2    1    2    0    0 -0.55978144264E+03  0.28995593133E+03  0.49003253484E+03  0.80244884993E+03  0.79765693870E+02 0.  0.
         25    2    1    2    0    0  0.12440506161E+03  0.12665221688E+03 -0.11512227012E+04  0.11715176410E+04  0.12498988775E+03 0.  0.
         24    2    1    2    0    0  0.59606415057E+02 -0.65779688944E+02 -0.75952713781E+02  0.14066835150E+03  0.78350993541E+02 0.  0.
        -11    1    5    5    0    0 -0.17875208472E+02 -0.79071824979E+01 -0.23785756534E+02  0.30786503973E+02  0.00000000000E+00 0.  1.
         12    1    5    5    0    0  0.77481623529E+02 -0.57872506446E+02 -0.52166957247E+02  0.10988184752E+03  0.00000000000E+00 0. -1.
        -13    1    3    3    0    0 -0.50896986933E+02  0.51719544964E+02  0.70945843292E+02  0.10148264527E+03  0.00000000000E+00 0.  1.
         14    1    3    3    0    0 -0.50888445571E+03  0.23823638636E+03  0.41908669155E+03  0.70096620466E+03  0.00000000000E+00 0. -1.
          5    1    4    4  501    0  0.86213512093E+02  0.18114908457E+02 -0.71219952625E+03  0.71764279051E+03  0.47000000000E+01 0. -1.
         -5    1    4    4    0  501  0.38191549516E+02  0.10853730843E+03 -0.43902317497E+03  0.45387485052E+03  0.47000000000E+01 0. -1.
          1    1    1    2  502    0 -0.16982049117E+02  0.17316576675E+02 -0.61376485348E+03  0.61424388413E+03  0.00000000000E+00 0. -1.
          1    1    1    2  503    0  0.39275201509E+03 -0.36814503594E+03  0.90403539401E+03  0.10521715195E+04  0.00000000000E+00 0. -1.
<mgrwt>
<rscale>  0 0.11685619E+03</rscale>
<asrwt>0</asrwt>
<pdfrwt beam="1">  1        2 0.24516014E+00 0.56301647E+03</pdfrwt>
<pdfrwt beam="2">  1        2 0.31087666E+00 0.24253944E+02</pdfrwt>
<totfact> 0.17224875E+01</totfact>
</mgrwt>
</event>
<event>
13    1  0.2101801E-008  0.2426329E+03  0.7546771E-02  0.1157618E+00
          2   -1    0    0  502    0  0.00000000000E+00  0.00000000000E+00  0.15384451535E+04  0.15384451535E+04  0.00000000000E+00 0. -1.
          2   -1    0    0  503    0 -0.00000000000E+00 -0.00000000000E+00 -0.12088771805E+04  0.12088771805E+04  0.00000000000E+00 0. -1.
         24    2    1    2    0    0  0.31512921307E+02 -0.15729158210E+03 -0.75200128696E+02  0.19440255127E+03  0.80022412968E+02 0.  0.
         25    2    1    2    0    0 -0.67778686470E+03 -0.28119817969E+03 -0.22635258131E+03  0.77802774191E+03  0.12499690356E+03 0.  0.
         24    2    1    2    0    0  0.32450557985E+03  0.62969420271E+02  0.83640512874E+02  0.35042543255E+03  0.80828393125E+02 0.  0.
        -11    1    5    5    0    0  0.91742727364E+02  0.55839617448E+02  0.28380881650E+02  0.11108674693E+03  0.00000000000E+00 0.  1.
         12    1    5    5    0    0  0.23276285249E+03  0.71298028230E+01  0.55259631224E+02  0.23933868561E+03  0.00000000000E+00 0. -1.
        -13    1    3    3    0    0  0.23060578732E+02 -0.24616792741E+02 -0.48061651133E+02  0.58717110675E+02  0.00000000000E+00 0.  1.
         14    1    3    3    0    0  0.84523425753E+01 -0.13267478936E+03 -0.27138477563E+02  0.13568544060E+03  0.00000000000E+00 0. -1.
          5    1    4    4  501    0 -0.43818846311E+03 -0.12561399039E+03 -0.17171509915E+03  0.48713054622E+03  0.47000000000E+01 0.  1.
         -5    1    4    4    0  501 -0.23959840158E+03 -0.15558418930E+03 -0.54637482160E+02  0.29089719569E+03  0.47000000000E+01 0.  1.
          1    1    1    2  502    0  0.48593740397E+02  0.14218229819E+03  0.90513785257E+03  0.91752476243E+03  0.00000000000E+00 0. -1.
          1    1    1    2  503    0  0.27317462314E+03  0.23333804333E+03 -0.35765768252E+03  0.50694184583E+03  0.00000000000E+00 0. -1.
<mgrwt>
<rscale>  0 0.19093789E+03</rscale>
<asrwt>0</asrwt>
<pdfrwt beam="1">  1        2 0.22624194E+00 0.15025697E+03</pdfrwt>
<pdfrwt beam="2">  1        2 0.17777605E+00 0.24263286E+03</pdfrwt>
<totfact> 0.49504684E+01</totfact>
</mgrwt>
</event>
<event>
13    1  0.2101801E-008  0.1623126E+03  0.7546771E-02  0.1284399E+00
          2   -1    0    0  502    0  0.00000000000E+00  0.00000000000E+00  0.12435381544E+04  0.12435381544E+04  0.00000000000E+00 0. -1.
          2   -1    0    0  503    0 -0.00000000000E+00 -0.00000000000E+00 -0.19676060653E+04  0.19676060653E+04  0.00000000000E+00 0. -1.
         24    2    1    2    0    0 -0.13845849195E+03  0.77373201439E+02 -0.16746383508E+03  0.24342947405E+03  0.77822917481E+02 0.  0.
         25    2    1    2    0    0 -0.16252633365E+03 -0.32335784070E+03  0.56810176425E+03  0.68508342598E+03  0.12499833494E+03 0.  0.
         24    2    1    2    0    0  0.11462384293E+03  0.17861645054E+03 -0.14346080521E+03  0.26755571162E+03  0.77217837427E+02 0.  0.
        -11    1    3    3    0    0  0.59824293378E+01  0.12485228545E+02 -0.13095154222E+01  0.13906301566E+02  0.00000000000E+00 0.  1.
         12    1    3    3    0    0 -0.14444092128E+03  0.64887972894E+02 -0.16615431966E+03  0.22952317249E+03  0.00000000000E+00 0. -1.
        -13    1    5    5    0    0  0.23940322774E+01  0.56997872003E+02 -0.57797170698E+02  0.81209616081E+02  0.00000000000E+00 0.  1.
         14    1    5    5    0    0  0.11222981065E+03  0.12161857853E+03 -0.85663634515E+02  0.18634609554E+03  0.00000000000E+00 0. -1.
          5    1    4    4  501    0 -0.11505817862E+03 -0.15609679145E+03  0.39308034839E+03  0.43833644961E+03  0.47000000000E+01 0. -1.
         -5    1    4    4    0  501 -0.47468155038E+02 -0.16726104925E+03  0.17502141586E+03  0.24674697637E+03  0.47000000000E+01 0. -1.
          1    1    1    2  502    0  0.53477350053E+02 -0.25531172643E+02  0.51081056300E+03  0.51423642327E+03  0.00000000000E+00 0. -1.
          1    1    1    2  503    0  0.13288363262E+03  0.92899361368E+02 -0.14920555979E+04  0.15008391847E+04  0.00000000000E+00 0. -1.
<mgrwt>
<rscale>  0 0.98074118E+02</rscale>
<asrwt>0</asrwt>
<pdfrwt beam="1">  1        2 0.18287326E+00 0.59259326E+02</pdfrwt>
<pdfrwt beam="2">  1        2 0.28935383E+00 0.16231255E+03</pdfrwt>
<totfact> 0.31501067E+01</totfact>
</mgrwt>
</event>
<event>
13    1  0.2101801E-008  0.1088613E+03  0.7546771E-02  0.1362547E+00
          2   -1    0    0  502    0  0.00000000000E+00  0.00000000000E+00  0.13003949626E+04  0.13003949626E+04  0.00000000000E+00 0. -1.
          2   -1    0    0  503    0 -0.00000000000E+00 -0.00000000000E+00 -0.19774999338E+04  0.19774999338E+04  0.00000000000E+00 0. -1.
         24    2    1    2    0    0  0.11606121198E+03 -0.18802021851E+03  0.42111151228E+02  0.23920736846E+03  0.81394155656E+02 0.  0.
         25    2    1    2    0    0 -0.63532670386E+02  0.16713384456E+03 -0.40409402589E+03  0.45922309146E+03  0.12499497496E+03 0.  0.
         24    2    1    2    0    0  0.68692625085E+02  0.29356075517E+02  0.80383987684E+02  0.13607046426E+03  0.80455763356E+02 0.  0.
        -13    1    5    5    0    0  0.12977556734E+02 -0.19014610685E+02  0.52266307933E+02  0.57111639298E+02  0.00000000000E+00 0.  1.
         14    1    5    5    0    0  0.55715068350E+02  0.48370686202E+02  0.28117679751E+02  0.78958824963E+02  0.00000000000E+00 0. -1.
        -13    1    3    3    0    0  0.83631839683E+02 -0.58773671899E+02  0.18207096468E+02  0.10382739272E+03  0.00000000000E+00 0.  1.
         14    1    3    3    0    0  0.32429372293E+02 -0.12924654661E+03  0.23904054760E+02  0.13537997574E+03  0.00000000000E+00 0. -1.
          5    1    4    4  501    0  0.32981793469E+02  0.36905638697E+02 -0.14777620024E+03  0.15591574720E+03  0.47000000000E+01 0.  1.
         -5    1    4    4    0  501 -0.96514463855E+02  0.13022820586E+03 -0.25631782566E+03  0.30330734426E+03  0.47000000000E+01 0.  1.
          1    1    1    2  502    0 -0.16596987566E+02 -0.40851846489E+02  0.10213549545E+04  0.10223063516E+04  0.00000000000E+00 0. -1.
          1    1    1    2  503    0 -0.10462417911E+03  0.32382144921E+02 -0.14168610388E+04  0.14210876206E+04  0.00000000000E+00 0. -1.
<mgrwt>
<rscale>  0 0.69283437E+02</rscale>
<asrwt>0</asrwt>
<pdfrwt beam="1">  1        2 0.19123455E+00 0.44094596E+02</pdfrwt>
<pdfrwt beam="2">  1        2 0.29080881E+00 0.10886129E+03</pdfrwt>
<totfact> 0.30970453E+01</totfact>
</mgrwt>
</event>
<event>
13    1  0.2101801E-008  0.3824367E+02  0.7546771E-02  0.1585112E+00
          2   -1    0    0  503    0  0.00000000000E+00  0.00000000000E+00  0.84335866602E+03  0.84335866602E+03  0.00000000000E+00 0. -1.
          2   -1    0    0  502    0 -0.00000000000E+00 -0.00000000000E+00 -0.20451327303E+04  0.20451327303E+04  0.00000000000E+00 0. -1.
         24    2    1    2    0    0  0.92393101608E+02 -0.11225689072E+02 -0.51670092858E+03  0.53120107109E+03  0.80822193789E+02 0.  0.
         25    2    1    2    0    0  0.39143003864E+00  0.85263604857E+02  0.28702877610E+03  0.32446954881E+03  0.12499973706E+03 0.  0.
         24    2    1    2    0    0 -0.73534565283E+02 -0.40389738048E+02 -0.14460754668E+03  0.18559475704E+03  0.80594094413E+02 0.  0.
        -11    1    3    3    0    0  0.20567289561E+01  0.56771337659E+01  0.34758550852E+00  0.60482061374E+01  0.00000000000E+00 0.  1.
         12    1    3    3    0    0  0.90336372652E+02 -0.16902822838E+02 -0.51704851409E+03  0.52515286495E+03  0.00000000000E+00 0. -1.
        -11    1    5    5    0    0 -0.23889193505E+02 -0.53725641517E+02 -0.10632868626E+03  0.12150278862E+03  0.00000000000E+00 0.  1.
         12    1    5    5    0    0 -0.49645371778E+02  0.13335903469E+02 -0.38278860423E+02  0.64091968417E+02  0.00000000000E+00 0. -1.
          5    1    4    4  501    0  0.57959388094E+01  0.10996838613E+03  0.15642560117E+03  0.19135751241E+03  0.47000000000E+01 0. -1.
         -5    1    4    4    0  501 -0.54045087707E+01 -0.24704781273E+02  0.13060317493E+03  0.13311203640E+03  0.47000000000E+01 0. -1.
          1    1    1    2  502    0  0.58759072348E+01 -0.37796168838E+02 -0.13367684723E+04  0.13373156042E+04  0.00000000000E+00 0. -1.
          1    1    1    2  503    0 -0.25125873599E+02  0.41479911014E+01  0.50927410715E+03  0.50991041524E+03  0.00000000000E+00 0. -1.
<mgrwt>
<rscale>  0 0.31207561E+02</rscale>
<asrwt>0</asrwt>
<pdfrwt beam="1">  1        2 0.12402333E+00 0.25465965E+02</pdfrwt>
<pdfrwt beam="2">  1        2 0.30075481E+00 0.38243667E+02</pdfrwt>
<totfact> 0.58170494E+01</totfact>
</mgrwt>
</event>
<event>
13    1  0.2101801E-008  0.7727631E+02  0.7546771E-02  0.1495941E+00
          2   -1    0    0  503    0  0.00000000000E+00  0.00000000000E+00  0.63834328231E+03  0.63834328231E+03  0.00000000000E+00 0. -1.
          2   -1    0    0  502    0 -0.00000000000E+00 -0.00000000000E+00 -0.15853029317E+04  0.15853029317E+04  0.00000000000E+00 0. -1.
         24    2    1    2    0    0 -0.12548299017E+03 -0.60637675830E+02 -0.55365215906E+03  0.57695787107E+03  0.83227178301E+02 0.  0.
         25    2    1    2    0    0  0.11472101896E+03 -0.34124693413E+02  0.17228270498E+03  0.24419775690E+03  0.12500322856E+03 0.  0.
         24    2    1    2    0    0  0.60964900348E+02  0.18487924537E+02 -0.75860017384E+02  0.12624821747E+03  0.78264600871E+02 0.  0.
        -11    1    3    3    0    0  0.88673206273E+01  0.49720972834E+01 -0.16456002389E+02  0.19342986872E+02  0.00000000000E+00 0.  1.
         12    1    3    3    0    0 -0.13435031079E+03 -0.65609773114E+02 -0.53719615667E+03  0.55761488419E+03  0.00000000000E+00 0. -1.
        -13    1    5    5    0    0  0.69574624722E+02  0.29965469601E+02 -0.35976056055E+02  0.83861996059E+02  0.00000000000E+00 0.  1.
         14    1    5    5    0    0 -0.86097243746E+01 -0.11477545064E+02 -0.39883961329E+02  0.42386221414E+02  0.00000000000E+00 0. -1.
          5    1    4    4  501    0  0.79266513726E+02  0.32848917944E+01  0.18028786943E+02  0.81492931418E+02  0.47000000000E+01 0. -1.
         -5    1    4    4    0  501  0.35454505234E+02 -0.37409585207E+02  0.15425391803E+03  0.16270482548E+03  0.47000000000E+01 0. -1.
          1    1    1    2  502    0 -0.22094611515E+02  0.43613079482E+01 -0.87905078005E+03  0.87933922167E+03  0.00000000000E+00 0. -1.
          1    1    1    2  503    0 -0.28108317628E+02  0.71913136758E+02  0.38932060214E+03  0.39690314688E+03  0.00000000000E+00 0. -1.
<mgrwt>
<rscale>  0 0.41717327E+02</rscale>
<asrwt>0</asrwt>
<pdfrwt beam="1">  1        2 0.93874013E-01 0.77276312E+02</pdfrwt>
<pdfrwt beam="2">  1        2 0.23313278E+00 0.22520943E+02</pdfrwt>
<totfact> 0.13161958E+02</totfact>
</mgrwt>
</event>
<event>
13    1  0.2101801E-008  0.1690071E+03  0.7546771E-02  0.1254910E+00
          2   -1    0    0  503    0  0.00000000000E+00  0.00000000000E+00  0.16994590887E+04  0.16994590887E+04  0.00000000000E+00 0. -1.
          2   -1    0    0  502    0 -0.00000000000E+00 -0.00000000000E+00 -0.62148025599E+03  0.62148025599E+03  0.00000000000E+00 0. -1.
         24    2    1    2    0    0  0.39224261511E+02 -0.25818383117E+02 -0.11976739469E+02  0.95679185500E+02  0.82498076655E+02 0.  0.
         25    2    1    2    0    0 -0.37606972916E+02 -0.20423534247E+03  0.86544749111E+03  0.89874967995E+03  0.12500107126E+03 0.  0.
         24    2    1    2    0    0  0.65343059066E+02 -0.23835119123E+02 -0.29853875673E+02  0.11115687140E+03  0.81404962353E+02 0.  0.
        -11    1    5    5    0    0  0.30770075654E+02 -0.51673154469E+02 -0.28984548411E+02  0.66760890460E+02  0.00000000000E+00 0.  1.
         12    1    5    5    0    0  0.34572983412E+02  0.27838035346E+02 -0.86932726251E+00  0.44395980942E+02  0.00000000000E+00 0. -1.
        -13    1    3    3    0    0  0.26539427886E+02 -0.55157887681E+02 -0.16502621924E+02  0.63396138182E+02  0.00000000000E+00 0.  1.
         14    1    3    3    0    0  0.12684833625E+02  0.29339504564E+02  0.45258824552E+01  0.32283047319E+02  0.00000000000E+00 0. -1.
          5    1    4    4  501    0  0.36069606581E+02 -0.13549441228E+03  0.54718785246E+03  0.56488617275E+03  0.47000000000E+01 0.  1.
         -5    1    4    4    0  501 -0.73676579497E+02 -0.68740930189E+02  0.31825963865E+03  0.33386350720E+03  0.47000000000E+01 0.  1.
          1    1    1    2  502    0 -0.10427381560E+03  0.31976022324E+03 -0.41925888425E+03  0.53749199157E+03  0.00000000000E+00 0. -1.
          1    1    1    2  503    0  0.37313467939E+02 -0.65871378532E+02  0.67362084102E+03  0.67786161630E+03  0.00000000000E+00 0. -1.
<mgrwt>
<rscale>  0 0.11311402E+03</rscale>
<asrwt>0</asrwt>
<pdfrwt beam="1">  1        2 0.24992045E+00 0.75705570E+02</pdfrwt>
<pdfrwt beam="2">  1        2 0.91394156E-01 0.16900713E+03</pdfrwt>
<totfact> 0.10529885E+02</totfact>
</mgrwt>
</event>
<event>
13    1  0.2101801E-008  0.9853746E+02  0.7546771E-02  0.1296987E+00
         -1   -1    0    0    0  501 -0.00000000000E+00  0.00000000000E+00  0.94283128904E+03  0.94283128904E+03  0.00000000000E+00 0.  1.
          2   -1    0    0  503    0  0.00000000000E+00 -0.00000000000E+00 -0.12520747079E+04  0.12520747079E+04  0.00000000000E+00 0. -1.
         24    2    1    2    0    0 -0.15309187630E+02  0.11989763070E+02  0.20452166188E+03  0.22038632163E+03  0.79767756278E+02 0.  0.
         25    2    1    2    0    0 -0.46641939158E+02 -0.39709189289E+02 -0.35712034226E+03  0.38329130903E+03  0.12499999406E+03 0.  0.
         24    2    1    2    0    0  0.34969693921E+02  0.38757697611E+02  0.67550348311E+02  0.11803999867E+03  0.81519035270E+02 0.  0.
        -13    1    3    3    0    0  0.22710532257E+02  0.93096968778E+01  0.15959067533E+03  0.16146709381E+03  0.00000000000E+00 0.  1.
         14    1    3    3    0    0 -0.38019719887E+02  0.26800661924E+01  0.44930986545E+02  0.58919227821E+02  0.00000000000E+00 0. -1.
        -13    1    5    5    0    0  0.18880346964E+02 -0.23569208769E+02  0.33916335043E+02  0.45412475007E+02  0.00000000000E+00 0.  1.
         14    1    5    5    0    0  0.16089346957E+02  0.62326906380E+02  0.33634013268E+02  0.72627523660E+02  0.00000000000E+00 0. -1.
          5    1    4    4  502    0 -0.36501097103E+02  0.13798909309E+02 -0.24732009426E+02  0.46438155412E+02  0.47000000000E+01 0.  1.
         -5    1    4    4    0  502 -0.10140842055E+02 -0.53508098598E+02 -0.33238833284E+03  0.33685315361E+03  0.47000000000E+01 0.  1.
          1    1    1    2  503    0 -0.58436563354E+02 -0.96846727547E+02 -0.83899220874E+03  0.84658256945E+03  0.00000000000E+00 0. -1.
         -2    1    1    2    0  501  0.85417996220E+02  0.85808456155E+02  0.61479712192E+03  0.62660579820E+03  0.00000000000E+00 0.  1.
<mgrwt>
<rscale>  0 0.92466283E+02</rscale>
<asrwt>0</asrwt>
<pdfrwt beam="2">  1        2 0.18412863E+00 0.86769169E+02</pdfrwt>
<pdfrwt beam="1">  1       -1 0.13865166E+00 0.98537461E+02</pdfrwt>
<totfact> 0.12280056E+01</totfact>
</mgrwt>
</event>
<event>
13    1  0.2101801E-008  0.6222141E+02  0.7546771E-02  0.1418055E+00
          4   -1    0    0  503    0 -0.00000000000E+00  0.00000000000E+00  0.52918344582E+03  0.52918344582E+03  0.00000000000E+00 0. -1.
          2   -1    0    0  502    0  0.00000000000E+00 -0.00000000000E+00 -0.19831441379E+04  0.19831441379E+04  0.00000000000E+00 0. -1.
         24    2    1    2    0    0 -0.50026132489E+02 -0.69860903134E+02  0.15484994159E+03  0.19637494070E+03  0.84861376416E+02 0.  0.
         25    2    1    2    0    0  0.43405980795E+02  0.12256666698E+03  0.46973504413E+02  0.18638198547E+03  0.12500026948E+03 0.  0.
         24    2    1    2    0    0 -0.74423996459E+01  0.18371004594E+02 -0.37966467264E+03  0.38564046257E+03  0.64656164424E+02 0.  0.
        -11    1    3    3    0    0 -0.43230686679E+02 -0.89527040687E+02  0.13464785735E+03  0.16737391904E+03  0.00000000000E+00 0.  1.
         12    1    3    3    0    0 -0.67954458100E+01  0.19666137553E+02  0.20202084235E+02  0.29001021662E+02  0.00000000000E+00 0. -1.
        -11    1    5    5    0    0 -0.34553867287E+02 -0.23397593976E+00 -0.20896663116E+03  0.21180433761E+03  0.00000000000E+00 0.  1.
         12    1    5    5    0    0  0.27111467641E+02  0.18604980534E+02 -0.17069804148E+03  0.17383612496E+03  0.00000000000E+00 0. -1.
          5    1    4    4  501    0  0.22404062453E+02  0.87606106260E+02  0.89470212072E+02  0.12729407180E+03  0.47000000000E+01 0. -1.
         -5    1    4    4    0  501  0.21001918342E+02  0.34960560716E+02 -0.42496707659E+02  0.59087913666E+02  0.47000000000E+01 0. -1.
          1    1    1    2  502    0  0.46120825232E+02 -0.17664202386E+02 -0.15054650410E+04  0.15062749232E+04  0.00000000000E+00 0. -1.
          3    1    1    2  503    0 -0.32058273892E+02 -0.53412566050E+02  0.22934557561E+03  0.23765527174E+03  0.00000000000E+00 0. -1.
<mgrwt>
<rscale>  0 0.55434452E+02</rscale>
<asrwt>0</asrwt>
<pdfrwt beam="2">  1        2 0.29163884E+00 0.49387798E+02</pdfrwt>
<pdfrwt beam="1">  1        4 0.77821096E-01 0.62221412E+02</pdfrwt>
<totfact> 0.75171829E+00</totfact>
</mgrwt>
</event>
<event>
13    1  0.2101801E-008  0.3229084E+02  0.7546771E-02  0.1629736E+00
         -3   -1    0    0    0  501 -0.00000000000E+00  0.00000000000E+00  0.19487869935E+04  0.19487869935E+04  0.00000000000E+00 0.  1.
          2   -1    0    0  503    0  0.00000000000E+00 -0.00000000000E+00 -0.70004255329E+03  0.70004255329E+03  0.00000000000E+00 0. -1.
         24    2    1    2    0    0 -0.13187038740E+03  0.93136146651E+02  0.23732392684E+03  0.29826925975E+03  0.81103416566E+02 0.  0.
         25    2    1    2    0    0  0.14298539329E+03  0.16291394093E+03  0.13945252508E+04  0.14167962586E+04  0.12500075421E+03 0.  0.
         24    2    1    2    0    0 -0.35086576851E+02 -0.20651633113E+03 -0.21906139702E+03  0.31385289052E+03  0.81459672998E+02 0.  0.
        -11    1    3    3    0    0 -0.11057362213E+03  0.83057015343E+02  0.13497740023E+03  0.19324567856E+03  0.00000000000E+00 0.  1.
         12    1    3    3    0    0 -0.21296765270E+02  0.10079131309E+02  0.10234652660E+03  0.10502358119E+03  0.00000000000E+00 0. -1.
        -13    1    5    5    0    0  0.20880592530E+02 -0.10500588855E+03 -0.85562495045E+02  0.13705172867E+03  0.00000000000E+00 0.  1.
         14    1    5    5    0    0 -0.55967169382E+02 -0.10151044259E+03 -0.13349890197E+03  0.17680116185E+03  0.00000000000E+00 0. -1.
          5    1    4    4  502    0  0.11211684848E+03  0.43536974724E+02  0.84900640635E+03  0.85749613637E+03  0.47000000000E+01 0. -1.
         -5    1    4    4    0  502  0.30868544811E+02  0.11937696620E+03  0.54551884445E+03  0.55930012227E+03  0.47000000000E+01 0. -1.
          1    1    1    2  503    0  0.16830323467E+02 -0.27547721578E+02 -0.39072374116E+03  0.39205507095E+03  0.00000000000E+00 0. -1.
         -4    1    1    2    0  501  0.71412474888E+01 -0.21986034867E+02  0.22668040079E+03  0.22785606696E+03  0.00000000000E+00 0.  1.
<mgrwt>
<rscale>  0 0.27321393E+02</rscale>
<asrwt>0</asrwt>
<pdfrwt beam="2">  1        2 0.10294743E+00 0.32290837E+02</pdfrwt>
<pdfrwt beam="1">  1       -3 0.28658632E+00 0.23116729E+02</pdfrwt>
<totfact> 0.17829503E+00</totfact>
</mgrwt>
</event>
<event>
13    1  0.2101801E-008  0.1283277E+03  0.7546771E-02  0.1339817E+00
         -1   -1    0    0    0  501 -0.00000000000E+00  0.00000000000E+00  0.18989356448E+04  0.18989356448E+04  0.00000000000E+00 0.  1.
          2   -1    0    0  503    0  0.00000000000E+00 -0.00000000000E+00 -0.56870545018E+03  0.56870545018E+03  0.00000000000E+00 0. -1.
         24    2    1    2    0    0 -0.20590861252E+03 -0.19512440287E+02  0.24529557780E+02  0.22339328909E+03  0.80769860531E+02 0.  0.
         25    2    1    2    0    0  0.14371671948E+03 -0.17568690135E+03  0.33243956743E+03  0.42150244358E+03  0.12501144424E+03 0.  0.
         24    2    1    2    0    0  0.57324990944E+02  0.31472092415E+02 -0.28675321054E+03  0.30536944917E+03  0.82136773406E+02 0.  0.
        -11    1    5    5    0    0  0.29354292450E+02  0.55148179054E+02 -0.22547114057E+03  0.23396630392E+03  0.00000000000E+00 0.  1.
         12    1    5    5    0    0  0.27970698495E+02 -0.23676086639E+02 -0.61282069972E+02  0.71403145259E+02  0.00000000000E+00 0. -1.
        -13    1    3    3    0    0 -0.13016386354E+02 -0.24116965363E+02  0.12357273496E+02  0.30062543810E+02  0.00000000000E+00 0.  1.
         14    1    3    3    0    0 -0.19289222617E+03  0.46045250761E+01  0.12172284284E+02  0.19333074528E+03  0.00000000000E+00 0. -1.
          5    1    4    4  502    0  0.91439805377E+02 -0.26263641674E+02  0.16849183804E+03  0.19355259328E+03  0.47000000000E+01 0. -1.
         -5    1    4    4    0  502  0.52276914102E+02 -0.14942325967E+03  0.16394772939E+03  0.22794985030E+03  0.47000000000E+01 0. -1.
          1    1    1    2  503    0 -0.21875532937E+02  0.39776655634E+02 -0.12168168558E+03  0.12987360732E+03  0.00000000000E+00 0. -1.
         -2    1    1    2    0  501  0.26742435034E+02  0.12395059358E+03  0.13816959656E+04  0.13875023059E+04  0.00000000000E+00 0.  1.
<mgrwt>
<rscale>  0 0.76324694E+02</rscale>
<asrwt>0</asrwt>
<pdfrwt beam="2">  1        2 0.83633155E-01 0.45395168E+02</pdfrwt>
<pdfrwt beam="1">  1       -1 0.27925524E+00 0.12832773E+03</pdfrwt>
<totfact> 0.38171918E+00</totfact>
</mgrwt>
</event>
<event>
13    1  0.2101801E-008  0.1316484E+03  0.7546771E-02  0.1305978E+00
          2   -1    0    0  502    0  0.00000000000E+00  0.00000000000E+00  0.19970056912E+04  0.19970056912E+04  0.00000000000E+00 0. -1.
          2   -1    0    0  503    0 -0.00000000000E+00 -0.00000000000E+00 -0.13901167380E+04  0.13901167380E+04  0.00000000000E+00 0. -1.
         24    2    1    2    0    0  0.43772427990E+03 -0.66850506572E+03 -0.19853659985E+03  0.82868720658E+03  0.93830361639E+02 0.  0.
         25    2    1    2    0    0 -0.18829945401E+03  0.48919186677E+03  0.38664007796E+03  0.66323614033E+03  0.12500504414E+03 0.  0.
         24    2    1    2    0    0 -0.17697571014E+03  0.18119406714E+03  0.32839081852E+03  0.42221112501E+03  0.79183410166E+02 0.  0.
        -13    1    5    5    0    0 -0.11796087488E+03  0.95444115434E+02  0.13743656611E+03  0.20472703016E+03  0.00000000000E+00 0.  1.
         14    1    5    5    0    0 -0.59014835252E+02  0.85749951708E+02  0.19095425241E+03  0.21748409484E+03  0.00000000000E+00 0. -1.
        -13    1    3    3    0    0  0.22693722772E+03 -0.34710956330E+03 -0.54701445087E+02  0.41830348116E+03  0.00000000000E+00 0.  1.
         14    1    3    3    0    0  0.21078705218E+03 -0.32139550242E+03 -0.14383515476E+03  0.41038372542E+03  0.00000000000E+00 0. -1.
          5    1    4    4  501    0 -0.76722199791E+02  0.15303274316E+03  0.60177065241E+02  0.18151772806E+03  0.47000000000E+01 0.  1.
         -5    1    4    4    0  501 -0.11157725422E+03  0.33615912361E+03  0.32646301272E+03  0.48171841227E+03  0.47000000000E+01 0.  1.
          1    1    1    2  502    0 -0.13181537641E+03 -0.90023435470E+01  0.77479567940E+03  0.78598007638E+03  0.00000000000E+00 0. -1.
          1    1    1    2  503    0  0.59366260657E+02  0.71214753601E+01 -0.68440102289E+03  0.68700788092E+03  0.00000000000E+00 0. -1.
<mgrwt>
<rscale>  0 0.88721492E+02</rscale>
<asrwt>0</asrwt>
<pdfrwt beam="1">  1        2 0.29367731E+00 0.13164837E+03</pdfrwt>
<pdfrwt beam="2">  1        2 0.20442893E+00 0.59791875E+02</pdfrwt>
<totfact> 0.26263163E+01</totfact>
</mgrwt>
</event>
<event>
13    1  0.2101801E-008  0.1091303E+03  0.7546771E-02  0.1332771E+00
          2   -1    0    0  502    0  0.00000000000E+00  0.00000000000E+00  0.12859999791E+04  0.12859999791E+04  0.00000000000E+00 0. -1.
          2   -1    0    0  503    0 -0.00000000000E+00 -0.00000000000E+00 -0.22117955186E+04  0.22117955186E+04  0.00000000000E+00 0. -1.
         24    2    1    2    0    0  0.88559582096E+02 -0.11146794269E+03 -0.59104269452E+03  0.61334446497E+03  0.81191527502E+02 0.  0.
         25    2    1    2    0    0 -0.40834446104E+02  0.24641570540E+03  0.53567657840E+03  0.60412409821E+03  0.12501350944E+03 0.  0.
         24    2    1    2    0    0 -0.10002168381E+03  0.46191830102E+01 -0.27152241848E+03  0.30026645916E+03  0.80061530592E+02 0.  0.
        -11    1    5    5    0    0 -0.67166643608E+02 -0.35786099244E+02 -0.16371699881E+03  0.18054157032E+03  0.00000000000E+00 0.  1.
         12    1    5    5    0    0 -0.32855040200E+02  0.40405282254E+02 -0.10780541967E+03  0.11972488885E+03  0.00000000000E+00 0. -1.
        -13    1    3    3    0    0 -0.79495059981E+01 -0.35088604682E+02 -0.80461999346E+02  0.88139311110E+02  0.00000000000E+00 0.  1.
         14    1    3    3    0    0  0.96509088094E+02 -0.76379338004E+02 -0.51058069517E+03  0.52520515386E+03  0.00000000000E+00 0. -1.
          5    1    4    4  501    0  0.14595268438E+02  0.96383957854E+02  0.98842537631E+02  0.13890581859E+03  0.47000000000E+01 0. -1.
         -5    1    4    4    0  501 -0.55429714542E+02  0.15003174755E+03  0.43683404076E+03  0.46521827963E+03  0.47000000000E+01 0. -1.
          1    1    1    2  502    0  0.47769302509E+02 -0.30656658286E+02  0.68710078966E+03  0.68944124631E+03  0.00000000000E+00 0. -1.
          1    1    1    2  503    0  0.45272453074E+01 -0.10891028744E+03 -0.12860077946E+04  0.12906192290E+04  0.00000000000E+00 0. -1.
<mgrwt>
<rscale>  0 0.78703707E+02</rscale>
<asrwt>0</asrwt>
<pdfrwt beam="1">  1        2 0.18911765E+00 0.56760347E+02</pdfrwt>
<pdfrwt beam="2">  1        2 0.32526404E+00 0.10913030E+03</pdfrwt>
<totfact> 0.23810570E+01</totfact>
</mgrwt>
</event>
<event>
13    1  0.2101801E-008  0.9460484E+02  0.7546771E-02  0.1307043E+00
          2   -1    0    0  503    0  0.00000000000E+00  0.00000000000E+00  0.18845584305E+04  0.18845584305E+04  0.00000000000E+00 0. -1.
         -1   -1    0    0    0  501 -0.00000000000E+00 -0.00000000000E+00 -0.15401534460E+04  0.15401534460E+04  0.00000000000E+00 0.  1.
         24    2    1    2    0    0  0.88009114895E+02 -0.10576176773E+03 -0.38217148783E+03  0.41478135227E+03  0.84008144002E+02 0.  0.
         25    2    1    2    0    0 -0.35649953555E+03  0.21664846692E+03 -0.29243823122E+03  0.52457080646E+03  0.12500373933E+03 0.  0.
         24    2    1    2    0    0  0.19370518544E+03  0.36551568331E+02 -0.40579672227E+03  0.45851597869E+03  0.81903643979E+02 0.  0.
        -13    1    3    3    0    0  0.33447301573E+02 -0.82276290475E+02 -0.14293961057E+03  0.16828500297E+03  0.00000000000E+00 0.  1.
         14    1    3    3    0    0  0.54561813322E+02 -0.23485477254E+02 -0.23923187727E+03  0.24649634929E+03  0.00000000000E+00 0. -1.
        -13    1    5    5    0    0  0.82149742786E+02 -0.96960885456E+01 -0.10025915603E+03  0.12997881651E+03  0.00000000000E+00 0.  1.
         14    1    5    5    0    0  0.11155544265E+03  0.46247656876E+02 -0.30553756624E+03  0.32853716219E+03  0.00000000000E+00 0. -1.
          5    1    4    4  502    0 -0.24026956724E+03  0.17517933996E+03 -0.26440950513E+03  0.39793434445E+03  0.47000000000E+01 0. -1.
         -5    1    4    4    0  502 -0.11622996832E+03  0.41469126959E+02 -0.28028726091E+02  0.12663646201E+03  0.47000000000E+01 0. -1.
          1    1    1    2  503    0  0.10731512548E+02 -0.81697448288E+02  0.17178200889E+04  0.17197951902E+04  0.00000000000E+00 0. -1.
         -2    1    1    2    0  501  0.64053722672E+02 -0.65740819231E+02 -0.29300866311E+03  0.30704854886E+03  0.00000000000E+00 0.  1.
<mgrwt>
<rscale>  0 0.88291388E+02</rscale>
<asrwt>0</asrwt>
<pdfrwt beam="1">  1        2 0.27714095E+00 0.82399262E+02</pdfrwt>
<pdfrwt beam="2">  1       -1 0.22649315E+00 0.94604843E+02</pdfrwt>
<totfact> 0.15172200E+00</totfact>
</mgrwt>
</event>
<event>
13    1  0.2101801E-008  0.1965294E+03  0.7546771E-02  0.1246443E+00
          2   -1    0    0  502    0  0.00000000000E+00  0.00000000000E+00  0.12541742951E+04  0.12541742951E+04  0.00000000000E+00 0. -1.
          2   -1    0    0  503    0 -0.00000000000E+00 -0.00000000000E+00 -0.19187681987E+04  0.19187681987E+04  0.00000000000E+00 0. -1.
         24    2    1    2    0    0  0.12271830412E+03 -0.88741793974E+02 -0.20297491848E+03  0.26583856870E+03  0.80848246199E+02 0.  0.
         25    2    1    2    0    0  0.41271820534E+02 -0.25191009107E+03  0.25077803543E+03  0.37904755829E+03  0.12500148493E+03 0.  0.
         24    2    1    2    0    0 -0.28872039987E+02 -0.35953646413E+02 -0.54101040745E+01  0.91535749566E+02  0.78887672289E+02 0.  0.
        -11    1    3    3    0    0  0.12907826017E+03 -0.89040391190E+02 -0.16613228652E+03  0.22844983068E+03  0.00000000000E+00 0.  1.
         12    1    3    3    0    0 -0.63599560516E+01  0.29859721598E+00 -0.36842631960E+02  0.37388738024E+02  0.00000000000E+00 0. -1.
        -11    1    5    5    0    0  0.44627139046E+00  0.24025784621E+02  0.31196024258E+01  0.24231578654E+02  0.00000000000E+00 0.  1.
         12    1    5    5    0    0 -0.29318311378E+02 -0.59979431034E+02 -0.85297065004E+01  0.67304170912E+02  0.00000000000E+00 0. -1.
          5    1    4    4  501    0  0.65329982417E+02 -0.19262295275E+03  0.23891376214E+03  0.31380485061E+03  0.47000000000E+01 0.  1.
         -5    1    4    4    0  501 -0.24058161883E+02 -0.59287138323E+02  0.11864273288E+02  0.65242707672E+02  0.47000000000E+01 0.  1.
          1    1    1    2  502    0  0.67814587174E+01  0.70517328211E+02  0.84516298112E+03  0.84812684571E+03  0.00000000000E+00 0. -1.
          1    1    1    2  503    0 -0.14189954339E+03  0.30608820325E+03 -0.15521498976E+04  0.15883937715E+04  0.00000000000E+00 0. -1.
<mgrwt>
<rscale>  0 0.11799435E+03</rscale>
<asrwt>0</asrwt>
<pdfrwt beam="1">  1        2 0.18443740E+00 0.70842655E+02</pdfrwt>
<pdfrwt beam="2">  1        2 0.28217179E+00 0.19652944E+03</pdfrwt>
<totfact> 0.31921246E+01</totfact>
</mgrwt>
</event>
<event>
13    1  0.2101801E-008  0.3529647E+02  0.7546771E-02  0.1560440E+00
          2   -1    0    0  502    0  0.00000000000E+00  0.00000000000E+00  0.26723351642E+04  0.26723351642E+04  0.00000000000E+00 0. -1.
          2   -1    0    0  503    0 -0.00000000000E+00 -0.00000000000E+00 -0.75978220464E+03  0.75978220464E+03  0.00000000000E+00 0. -1.
         24    2    1    2    0    0  0.48355880909E+02  0.55772790730E+02 -0.47061183999E+03  0.48291341893E+03  0.79252576222E+02 0.  0.
         25    2    1    2    0    0 -0.67605735280E+02 -0.27649012796E+02  0.53803950604E+03  0.55717786249E+03  0.12500262812E+03 0.  0.
         24    2    1    2    0    0 -0.67502904573E+01 -0.81964363985E+02 -0.61602629146E+02  0.13130685368E+03  0.81748899209E+02 0.  0.
        -13    1    5    5    0    0  0.33939258367E+02 -0.39269290962E+02 -0.48182935581E+02  0.70820517877E+02  0.00000000000E+00 0.  1.
         14    1    5    5    0    0 -0.40689548824E+02 -0.42695073023E+02 -0.13419693565E+02  0.60486335807E+02  0.00000000000E+00 0. -1.
        -13    1    3    3    0    0 -0.16957896485E+02 -0.63786116388E+01 -0.74769606734E+02  0.76933419466E+02  0.00000000000E+00 0.  1.
         14    1    3    3    0    0  0.65313777394E+02  0.62151402369E+02 -0.39584223326E+03  0.40597999946E+03  0.00000000000E+00 0. -1.
          5    1    4    4  501    0 -0.46508892432E+02 -0.43060903859E+02  0.10100195208E+03  0.11933483498E+03  0.47000000000E+01 0.  1.
         -5    1    4    4    0  501 -0.21096842849E+02  0.15411891063E+02  0.43703755396E+03  0.43784302751E+03  0.47000000000E+01 0.  1.
          1    1    1    2  502    0 -0.17607989975E+01  0.32131045789E+02  0.20818437591E+04  0.20820924432E+04  0.00000000000E+00 0. -1.
          1    1    1    2  503    0  0.27760943826E+02  0.21709540262E+02 -0.17511583644E+03  0.17862679058E+03  0.00000000000E+00 0. -1.
<mgrwt>
<rscale>  0 0.33701843E+02</rscale>
<asrwt>0</asrwt>
<pdfrwt beam="1">  1        2 0.39299046E+00 0.32179256E+02</pdfrwt>
<pdfrwt beam="2">  1        2 0.11173268E+00 0.35296473E+02</pdfrwt>
<totfact> 0.33799002E+01</totfact>
</mgrwt>
</event>
<event>
13    1  0.2101801E-008  0.1009591E+03  0.7546771E-02  0.1324980E+00
          2   -1    0    0  503    0  0.00000000000E+00  0.00000000000E+00  0.18562506268E+04  0.18562506268E+04  0.00000000000E+00 0. -1.
          2   -1    0    0  502    0 -0.00000000000E+00 -0.00000000000E+00 -0.12367057406E+04  0.12367057406E+04  0.00000000000E+00 0. -1.
         24    2    1    2    0    0 -0.47211302830E+03 -0.13576970418E+03 -0.42250642669E+03  0.65581452219E+03  0.10127626994E+03 0.  0.
         25    2    1    2    0    0  0.56484165246E+01 -0.93330359660E+02  0.45480313126E+03  0.48084718168E+03  0.12500265308E+03 0.  0.
         24    2    1    2    0    0  0.41041549497E+03  0.27074020225E+03  0.79585161197E+02  0.50452325815E+03  0.80428754240E+02 0.  0.
        -13    1    3    3    0    0 -0.76249350709E+02 -0.49520746540E+02 -0.42583839650E+02  0.10039746621E+03  0.00000000000E+00 0.  1.
         14    1    3    3    0    0 -0.39586367759E+03 -0.86248957638E+02 -0.37992258704E+03  0.55541705598E+03  0.00000000000E+00 0. -1.
        -13    1    5    5    0    0  0.70009077245E+02  0.78041625038E+02  0.36408609737E+02  0.11098357085E+03  0.00000000000E+00 0.  1.
         14    1    5    5    0    0  0.34040641772E+03  0.19269857721E+03  0.43176551460E+02  0.39353968730E+03  0.00000000000E+00 0. -1.
          5    1    4    4  501    0 -0.62526672151E+00  0.12264451460E+02  0.24950674479E+03  0.24985298362E+03  0.47000000000E+01 0. -1.
         -5    1    4    4    0  501  0.62736832461E+01 -0.10559481112E+03  0.20529638647E+03  0.23099419805E+03  0.47000000000E+01 0. -1.
          1    1    1    2  502    0  0.23206524170E+02 -0.98558959254E+02 -0.46550363449E+03  0.47638854409E+03  0.00000000000E+00 0. -1.
          1    1    1    2  503    0  0.32842592641E+02  0.56918820846E+02  0.97316665490E+03  0.97538286137E+03  0.00000000000E+00 0. -1.
<mgrwt>
<rscale>  0 0.81452278E+02</rscale>
<asrwt>0</asrwt>
<pdfrwt beam="1">  1        2 0.27297804E+00 0.65714443E+02</pdfrwt>
<pdfrwt beam="2">  1        2 0.18186849E+00 0.10095914E+03</pdfrwt>
<totfact> 0.37986606E+01</totfact>
</mgrwt>
</event>
<event>
13    1  0.2101801E-008  0.6982083E+02  0.7546771E-02  0.1460390E+00
          2   -1    0    0  503    0  0.00000000000E+00  0.00000000000E+00  0.92399235975E+03  0.92399235975E+03  0.00000000000E+00 0. -1.
          2   -1    0    0  502    0 -0.00000000000E+00 -0.00000000000E+00 -0.72560160751E+03  0.72560160751E+03  0.00000000000E+00 0. -1.
         24    2    1    2    0    0  0.12211119132E+03  0.15216964694E+03 -0.35754957231E+03  0.41559410902E+03  0.82522859245E+02 0.  0.
         25    2    1    2    0    0 -0.27567249431E+03 -0.28761600643E+03  0.85008065840E+02  0.42611016106E+03  0.12500082732E+03 0.  0.
         24    2    1    2    0    0  0.96682134264E+02  0.62528559762E+02  0.50669043953E+03  0.52541449811E+03  0.77896966800E+02 0.  0.
        -11    1    5    5    0    0  0.10094559495E+03  0.45954210465E+02  0.48632809296E+03  0.49881541336E+03  0.00000000000E+00 0.  1.
         12    1    5    5    0    0 -0.42634606873E+01  0.16574349297E+02  0.20362346569E+02  0.26599084748E+02  0.00000000000E+00 0. -1.
        -13    1    3    3    0    0 -0.31405323791E+01  0.19868548297E+02 -0.87867715564E+02  0.90140765437E+02  0.00000000000E+00 0.  1.
         14    1    3    3    0    0  0.12525172370E+03  0.13230109864E+03 -0.26968185674E+03  0.32545334358E+03  0.00000000000E+00 0. -1.
          5    1    4    4  501    0 -0.61678610857E+02 -0.33044908652E+02  0.60481357714E+02  0.92608323903E+02  0.47000000000E+01 0. -1.
         -5    1    4    4    0  501 -0.21399388345E+03 -0.25457109778E+03  0.24526708125E+02  0.33350183716E+03  0.47000000000E+01 0. -1.
          1    1    1    2  502    0  0.56390141394E+02  0.40858736467E+02 -0.14916705895E+03  0.16462106751E+03  0.00000000000E+00 0. -1.
          1    1    1    2  503    0  0.48902732717E+00  0.32059063262E+02  0.11340887813E+03  0.11785413155E+03  0.00000000000E+00 0. -1.
<mgrwt>
<rscale>  0 0.47314381E+02</rscale>
<asrwt>0</asrwt>
<pdfrwt beam="1">  1        2 0.13588123E+00 0.32062793E+02</pdfrwt>
<pdfrwt beam="2">  1        2 0.10670612E+00 0.69820825E+02</pdfrwt>
<totfact> 0.23540880E+02</totfact>
</mgrwt>
</event>
<event>
13    1  0.2101801E-008  0.9575988E+02  0.7546771E-02  0.1391830E+00
          2   -1    0    0  502    0  0.00000000000E+00  0.00000000000E+00  0.79882094881E+03  0.79882094881E+03  0.00000000000E+00 0. -1.
          2   -1    0    0  503    0 -0.00000000000E+00 -0.00000000000E+00 -0.16431889224E+04  0.16431889224E+04  0.00000000000E+00 0. -1.
         24    2    1    2    0    0 -0.64128159172E+01  0.78190545859E+01 -0.24421684849E+03  0.25743699860E+03  0.80806418898E+02 0.  0.
         25    2    1    2    0    0 -0.14028569587E+02 -0.53612239964E+02 -0.25437478373E+03  0.28879049068E+03  0.12498937502E+03 0.  0.
         24    2    1    2    0    0  0.57625191863E+02 -0.36440785605E+02  0.14234123462E+03  0.17677038207E+03  0.79612482123E+02 0.  0.
        -11    1    3    3    0    0 -0.35276314692E+02  0.15426656373E+02 -0.63417017114E+02  0.74189744337E+02  0.00000000000E+00 0.  1.
         12    1    3    3    0    0  0.28863498775E+02 -0.76076017872E+01 -0.18079983138E+03  0.18324725426E+03  0.00000000000E+00 0. -1.
        -13    1    5    5    0    0 -0.44147780600E+01 -0.76849666124E+01  0.90569941657E+02  0.91002545618E+02  0.00000000000E+00 0.  1.
         14    1    5    5    0    0  0.62039969923E+02 -0.28755818992E+02  0.51771292963E+02  0.85767836448E+02  0.00000000000E+00 0. -1.
          5    1    4    4  501    0 -0.62517168819E+02 -0.60334136884E+01 -0.81593211838E+02  0.10307444250E+03  0.47000000000E+01 0. -1.
         -5    1    4    4    0  501  0.48488599232E+02 -0.47578826275E+02 -0.17278157189E+03  0.18571604818E+03  0.47000000000E+01 0. -1.
          1    1    1    2  502    0 -0.27228269849E+02  0.12039470691E+03  0.60890020768E+03  0.62128554389E+03  0.00000000000E+00 0. -1.
          1    1    1    2  503    0 -0.99555365091E+01 -0.38160735928E+02 -0.10970177837E+04  0.10977264560E+04  0.00000000000E+00 0. -1.
<mgrwt>
<rscale>  0 0.61453857E+02</rscale>
<asrwt>0</asrwt>
<pdfrwt beam="1">  1        2 0.11747367E+00 0.95759882E+02</pdfrwt>
<pdfrwt beam="2">  1        2 0.24164543E+00 0.39437983E+02</pdfrwt>
<totfact> 0.90029122E+01</totfact>
</mgrwt>
</event>
<event>
13    1  0.2101801E-008  0.4748743E+02  0.7546771E-02  0.1484582E+00
          2   -1    0    0  503    0  0.00000000000E+00  0.00000000000E+00  0.21440228081E+04  0.21440228081E+04  0.00000000000E+00 0. -1.
          2   -1    0    0  502    0 -0.00000000000E+00 -0.00000000000E+00 -0.20145839427E+04  0.20145839427E+04  0.00000000000E+00 0. -1.
         24    2    1    2    0    0 -0.69079765912E+02  0.24141003930E+02 -0.13379863362E+04  0.13424587108E+04  0.81444165800E+02 0.  0.
         25    2    1    2    0    0 -0.30845681528E+02 -0.18489256810E+03  0.27954918309E+03  0.35904098665E+03  0.12500386604E+03 0.  0.
         24    2    1    2    0    0  0.57492525195E+02  0.11164504087E+03 -0.32708992265E+03  0.35973259972E+03  0.81545816543E+02 0.  0.
        -11    1    3    3    0    0 -0.13898035377E+02  0.28799585197E+02 -0.95022717613E+03  0.95076509073E+03  0.00000000000E+00 0.  1.
         12    1    3    3    0    0 -0.55181730535E+02 -0.46585812669E+01 -0.38775916010E+03  0.39169362007E+03  0.00000000000E+00 0. -1.
        -13    1    5    5    0    0  0.39183342422E+02  0.84059441843E+01 -0.54304531775E+02  0.67490565210E+02  0.00000000000E+00 0.  1.
         14    1    5    5    0    0  0.18309182773E+02  0.10323909668E+03 -0.27278539087E+03  0.29224203451E+03  0.00000000000E+00 0. -1.
          5    1    4    4  501    0  0.14542861175E+02  0.14312391104E+02  0.26484492152E+02  0.33761778313E+02  0.47000000000E+01 0.  1.
         -5    1    4    4    0  501 -0.45388542704E+02 -0.19920495920E+03  0.25306469094E+03  0.32527920834E+03  0.47000000000E+01 0.  1.
          1    1    1    2  502    0  0.28054473744E+01  0.47380760175E+02 -0.28905076053E+03  0.29292174575E+03  0.00000000000E+00 0. -1.
          1    1    1    2  503    0  0.39627474871E+02  0.17257631281E+01  0.18040167017E+04  0.18044527079E+04  0.00000000000E+00 0. -1.
<mgrwt>
<rscale>  0 0.43400353E+02</rscale>
<asrwt>0</asrwt>
<pdfrwt beam="1">  1        2 0.31529747E+00 0.39665035E+02</pdfrwt>
<pdfrwt beam="2">  1        2 0.29626234E+00 0.47487431E+02</pdfrwt>
<totfact> 0.13262866E+01</totfact>
</mgrwt>
</event>
<event>
13    1  0.2101801E-008  0.1244399E+03  0.7546771E-02  0.1415063E+00
          2   -1    0    0  502    0  0.00000000000E+00  0.00000000000E+00  0.37067126343E+04  0.37067126343E+04  0.00000000000E+00 0. -1.
          2   -1    0    0  503    0 -0.00000000000E+00 -0.00000000000E+00 -0.56158826240E+03  0.56158826240E+03  0.00000000000E+00 0. -1.
         24    2    1    2    0    0 -0.12971549633E+03  0.43915022780E+02 -0.26263830426E+02  0.16081330068E+03  0.80102994155E+02 0.  0.
         25    2    1    2    0    0  0.14355916847E+03  0.90707630553E+02  0.18398687749E+04  0.18519122388E+04  0.12499888930E+03 0.  0.
         24    2    1    2    0    0 -0.38911468004E+02 -0.55726095665E+02 -0.69001627315E+00  0.10539323702E+03  0.80546621323E+02 0.  0.
        -11    1    5    5    0    0  0.21326574471E+02 -0.32949519103E+02  0.90007294556E+01  0.40267936606E+02  0.00000000000E+00 0.  1.
         12    1    5    5    0    0 -0.60238042475E+02 -0.22776576562E+02 -0.96907457287E+01  0.65125300413E+02  0.00000000000E+00 0. -1.
        -11    1    3    3    0    0 -0.56574327349E+02 -0.14202563912E+02 -0.33234882373E+02  0.67133633471E+02  0.00000000000E+00 0.  1.
         12    1    3    3    0    0 -0.73141168978E+02  0.58117586692E+02  0.69710519472E+01  0.93679667205E+02  0.00000000000E+00 0. -1.
          5    1    4    4  501    0  0.11464988713E+03  0.12254763082E+02  0.13513158885E+04  0.13562343073E+04  0.47000000000E+01 0.  1.
         -5    1    4    4    0  501  0.28909281339E+02  0.78452867471E+02  0.48855288641E+03  0.49567793150E+03  0.47000000000E+01 0.  1.
          1    1    1    2  502    0 -0.68976877971E+01  0.24312689109E+02  0.17339661965E+04  0.17341503555E+04  0.00000000000E+00 0. -1.
          1    1    1    2  503    0  0.31965483657E+02 -0.10320924678E+03 -0.40175675281E+03  0.41603176465E+03  0.00000000000E+00 0. -1.
<mgrwt>
<rscale>  0 0.56079164E+02</rscale>
<asrwt>0</asrwt>
<pdfrwt beam="1">  1        2 0.54510479E+00 0.25272217E+02</pdfrwt>
<pdfrwt beam="2">  1        2 0.82586511E-01 0.12443992E+03</pdfrwt>
<totfact> 0.13809587E+01</totfact>
</mgrwt>
</event>
<event>
13    1  0.2101801E-008  0.4951290E+02  0.7546771E-02  0.1509998E+00
          2   -1    0    0  502    0  0.00000000000E+00  0.00000000000E+00  0.23669690092E+04  0.23669690092E+04  0.00000000000E+00 0. -1.
          2   -1    0    0  503    0 -0.00000000000E+00 -0.00000000000E+00 -0.32442205463E+04  0.32442205463E+04  0.00000000000E+00 0. -1.
         24    2    1    2    0    0  0.67881625396E+03  0.61975661144E+03 -0.41061469581E+03  0.10099929177E+04  0.81188060862E+02 0.  0.
         25    2    1    2    0    0 -0.37629573072E+03 -0.10498536014E+04 -0.81193317721E+02  0.11251704108E+04  0.12500014884E+03 0.  0.
         24    2    1    2    0    0 -0.30252086841E+03  0.44858737521E+03  0.91726899575E+03  0.10670020322E+04  0.66041025915E+02 0.  0.
        -13    1    5    5    0    0 -0.28186381857E+03  0.39317055353E+03  0.78467426892E+03  0.92181560232E+03  0.00000000000E+00 0.  1.
         14    1    5    5    0    0 -0.20657049845E+02  0.55416821675E+02  0.13259472684E+03  0.14518642987E+03  0.00000000000E+00 0. -1.
        -13    1    3    3    0    0  0.96956984852E+02  0.54053902754E+02 -0.56684519084E+02  0.12464195128E+03  0.00000000000E+00 0.  1.
         14    1    3    3    0    0  0.58185926911E+03  0.56570270868E+03 -0.35393017673E+03  0.88535096637E+03  0.00000000000E+00 0. -1.
          5    1    4    4  501    0 -0.30468449350E+03 -0.78972529585E+03 -0.11856580746E+02  0.84655853430E+03  0.47000000000E+01 0. -1.
         -5    1    4    4    0  501 -0.71611237219E+02 -0.26012830550E+03 -0.69336736975E+02  0.27861187648E+03  0.47000000000E+01 0. -1.
          1    1    1    2  502    0 -0.12075734842E+02 -0.48043762137E+02  0.55190907874E+03  0.55412783512E+03  0.00000000000E+00 0. -1.
          1    1    1    2  503    0  0.12076080012E+02  0.29553376845E+02 -0.18546215980E+04  0.18548963598E+04  0.00000000000E+00 0. -1.
<mgrwt>
<rscale>  0 0.39758283E+02</rscale>
<asrwt>0</asrwt>
<pdfrwt beam="1">  1        2 0.34808368E+00 0.49512897E+02</pdfrwt>
<pdfrwt beam="2">  1        2 0.47709125E+00 0.31925441E+02</pdfrwt>
<totfact> 0.27134387E+00</totfact>
</mgrwt>
</event>
<event>
13    1  0.2101801E-008  0.2560690E+02  0.7546771E-02  0.1653967E+00
          4   -1    0    0  503    0  0.00000000000E+00  0.00000000000E+00  0.15420968540E+03  0.15420968540E+03  0.00000000000E+00 0. -1.
         -1   -1    0    0    0  501 -0.00000000000E+00 -0.00000000000E+00 -0.17350211197E+04  0.17350211197E+04  0.00000000000E+00 0.  1.
         24    2    1    2    0    0  0.23648330690E+02 -0.89436861987E+02 -0.95127391802E+03  0.95917165012E+03  0.80808362640E+02 0.  0.
         25    2    1    2    0    0  0.46569263049E+02  0.83475333049E+02  0.27332561227E+02  0.15971450665E+03  0.12499930897E+03 0.  0.
         24    2    1    2    0    0 -0.69706725841E+02 -0.19328265557E+02 -0.38327917564E+02  0.11441069997E+03  0.79926025340E+02 0.  0.
        -13    1    5    5    0    0 -0.59710673189E+01 -0.13549612977E+00 -0.46917421218E+02  0.47296050764E+02  0.00000000000E+00 0.  1.
         14    1    5    5    0    0 -0.63735658522E+02 -0.19192769427E+02  0.85895036534E+01  0.67114649210E+02  0.00000000000E+00 0. -1.
        -13    1    3    3    0    0 -0.14674327498E+02 -0.46480021906E+02 -0.20642179678E+03  0.21209829445E+03  0.00000000000E+00 0.  1.
         14    1    3    3    0    0  0.38322658188E+02 -0.42956840081E+02 -0.74485212124E+03  0.74707335567E+03  0.00000000000E+00 0. -1.
          5    1    4    4  502    0  0.79408473167E+02  0.18507621569E+02 -0.40117731257E+00  0.81673059268E+02  0.47000000000E+01 0. -1.
         -5    1    4    4    0  502 -0.32839210118E+02  0.64967711480E+02  0.27733738539E+02  0.78041447382E+02  0.47000000000E+01 0. -1.
          3    1    1    2  503    0 -0.22454793777E+02  0.12523755623E+02  0.94768203824E+01  0.27402049979E+02  0.00000000000E+00 0. -1.
         -2    1    1    2    0  501  0.21943925880E+02  0.12766038871E+02 -0.62801898031E+03  0.62853189837E+03  0.00000000000E+00 0.  1.
<mgrwt>
<rscale>  0 0.25496790E+02</rscale>
<asrwt>0</asrwt>
<pdfrwt beam="1">  1        4 0.22677895E-01 0.25606898E+02</pdfrwt>
<pdfrwt beam="2">  1       -1 0.25515016E+00 0.25387155E+02</pdfrwt>
<totfact> 0.51006020E+00</totfact>
</mgrwt>
</event>
<event>
13    1  0.2101801E-008  0.1245959E+03  0.7546771E-02  0.1406978E+00
          2   -1    0    0  503    0  0.00000000000E+00  0.00000000000E+00  0.15797192396E+04  0.15797192396E+04  0.00000000000E+00 0. -1.
          2   -1    0    0  502    0 -0.00000000000E+00 -0.00000000000E+00 -0.29857645795E+04  0.29857645795E+04  0.00000000000E+00 0. -1.
         24    2    1    2    0    0  0.21402790740E+03  0.34626170687E+02  0.49785817725E+02  0.23618548789E+03  0.79360192782E+02 0.  0.
         25    2    1    2    0    0 -0.37933999039E+02 -0.21948057648E+02  0.12216026384E+04  0.12287633544E+04  0.12500267756E+03 0.  0.
         24    2    1    2    0    0 -0.56422684047E+02  0.31290391196E+02 -0.26725368171E+02  0.10718138330E+03  0.81308030140E+02 0.  0.
        -11    1    5    5    0    0 -0.13689846363E+02 -0.27022461483E+02 -0.55960052453E+00  0.30297499415E+02  0.00000000000E+00 0.  1.
         12    1    5    5    0    0 -0.42732837685E+02  0.58312852679E+02 -0.26165767646E+02  0.76883883881E+02  0.00000000000E+00 0. -1.
        -11    1    3    3    0    0  0.42525939924E+02  0.40939936486E+02  0.81594184911E+01  0.59591191262E+02  0.00000000000E+00 0.  1.
         12    1    3    3    0    0  0.17150196748E+03 -0.63137657981E+01  0.41626399234E+02  0.17659429663E+03  0.00000000000E+00 0. -1.
          5    1    4    4  501    0 -0.10386496066E+02 -0.44790500438E+02  0.11197705283E+04  0.11207239599E+04  0.47000000000E+01 0. -1.
         -5    1    4    4    0  501 -0.27547502973E+02  0.22842442790E+02  0.10183211007E+03  0.10803939445E+03  0.47000000000E+01 0. -1.
          1    1    1    2  502    0 -0.10523641328E+03 -0.66645956838E+02 -0.28195928961E+04  0.28223430844E+04  0.00000000000E+00 0. -1.
          1    1    1    2  503    0 -0.14434811041E+02  0.22677452603E+02  0.16888446826E+03  0.17101050916E+03  0.00000000000E+00 0. -1.
<mgrwt>
<rscale>  0 0.57873669E+02</rscale>
<asrwt>0</asrwt>
<pdfrwt beam="1">  1        2 0.23231165E+00 0.26881790E+02</pdfrwt>
<pdfrwt beam="2">  1        2 0.43908303E+00 0.12459593E+03</pdfrwt>
<totfact> 0.72811163E+00</totfact>
</mgrwt>
</event>
<event>
13    1  0.2101801E-008  0.9009067E+02  0.7546771E-02  0.1304922E+00
          2   -1    0    0  503    0  0.00000000000E+00  0.00000000000E+00  0.42171990653E+03  0.42171990653E+03  0.00000000000E+00 0. -1.
          2   -1    0    0  502    0 -0.00000000000E+00 -0.00000000000E+00 -0.29848642366E+04  0.29848642366E+04  0.00000000000E+00 0. -1.
         24    2    1    2    0    0 -0.71727630772E+02 -0.91813288439E+01 -0.75529996114E+03  0.76275723770E+03  0.78047565985E+02 0.  0.
         25    2    1    2    0    0  0.33819683157E+02 -0.28896836752E+02 -0.29356599684E+02  0.13588740226E+03  0.12499911202E+03 0.  0.
         24    2    1    2    0    0  0.10285153565E+03  0.11252245885E+03 -0.26468846375E+03  0.31566045696E+03  0.79635413682E+02 0.  0.
        -11    1    3    3    0    0 -0.19925709845E+00  0.26468952877E+02 -0.18385359314E+03  0.18574926347E+03  0.00000000000E+00 0.  1.
         12    1    3    3    0    0 -0.71528373674E+02 -0.35650281721E+02 -0.57144636800E+03  0.57700797424E+03  0.00000000000E+00 0. -1.
        -13    1    5    5    0    0  0.71801733543E+01  0.15828863206E+02 -0.10258539938E+03  0.10404745055E+03  0.00000000000E+00 0.  1.
         14    1    5    5    0    0  0.95671362298E+02  0.96693595649E+02 -0.16210306437E+03  0.21161300641E+03  0.00000000000E+00 0. -1.
          5    1    4    4  501    0 -0.46485320257E+02 -0.20385529560E+02 -0.40808266682E+01  0.51139006259E+02  0.47000000000E+01 0. -1.
         -5    1    4    4    0  501  0.80305003414E+02 -0.85113071911E+01 -0.25275773016E+02  0.84748396003E+02  0.47000000000E+01 0. -1.
          1    1    1    2  502    0 -0.87253221136E+02  0.13026083245E+02 -0.18459618599E+04  0.18480687194E+04  0.00000000000E+00 0. -1.
          1    1    1    2  503    0  0.22309633098E+02 -0.87470376504E+02  0.33216255442E+03  0.34421032677E+03  0.00000000000E+00 0. -1.
<mgrwt>
<rscale>  0 0.89150531E+02</rscale>
<asrwt>0</asrwt>
<pdfrwt beam="1">  1        2 0.62017631E-01 0.90090674E+02</pdfrwt>
<pdfrwt beam="2">  1        2 0.43895064E+00 0.88220199E+02</pdfrwt>
<totfact> 0.37191807E+01</totfact>
</mgrwt>
</event>
<event>
13    1  0.2101801E-008  0.1962152E+03  0.7546771E-02  0.1326463E+00
          2   -1    0    0  502    0  0.00000000000E+00  0.00000000000E+00  0.10773734874E+04  0.10773734874E+04  0.00000000000E+00 0. -1.
          2   -1    0    0  503    0 -0.00000000000E+00 -0.00000000000E+00 -0.15367762049E+04  0.15367762049E+04  0.00000000000E+00 0. -1.
         24    2    1    2    0    0 -0.14647257657E+03  0.13650229369E+03 -0.10285058438E+03  0.23950704037E+03  0.81843068189E+02 0.  0.
         25    2    1    2    0    0 -0.98486125673E+02 -0.11344840094E+03  0.52834394367E+03  0.56332692438E+03  0.12497937547E+03 0.  0.
         24    2    1    2    0    0 -0.36889557819E+02 -0.55836343997E+02  0.85846901539E+02  0.13722476328E+03  0.83560806404E+02 0.  0.
        -13    1    5    5    0    0 -0.61774334705E+02 -0.46218598494E+02  0.77293193605E+02  0.10920835615E+03  0.00000000000E+00 0.  1.
         14    1    5    5    0    0  0.24884776887E+02 -0.96177455033E+01  0.85537079346E+01  0.28016407134E+02  0.00000000000E+00 0. -1.
        -13    1    3    3    0    0 -0.99859819235E+01 -0.92087426280E+01  0.24286356181E+01  0.13799240803E+02  0.00000000000E+00 0.  1.
         14    1    3    3    0    0 -0.13648659465E+03  0.14571103631E+03 -0.10527921999E+03  0.22570779957E+03  0.00000000000E+00 0. -1.
          5    1    4    4  501    0  0.25738783152E+02 -0.69453622933E+01  0.40187641901E+02  0.48454716768E+02  0.47000000000E+01 0.  1.
         -5    1    4    4    0  501 -0.12422490883E+03 -0.10650303864E+03  0.48815630177E+03  0.51487220761E+03  0.47000000000E+01 0.  1.
          1    1    1    2  502    0  0.25071668459E+02  0.22023768175E+02  0.33835880790E+03  0.34000046737E+03  0.00000000000E+00 0. -1.
          1    1    1    2  503    0  0.25677659161E+03  0.10758683070E+02 -0.13091017862E+04  0.13340904969E+04  0.00000000000E+00 0. -1.
<mgrwt>
<rscale>  0 0.80919284E+02</rscale>
<asrwt>0</asrwt>
<pdfrwt beam="1">  1        2 0.15843728E+00 0.33371169E+02</pdfrwt>
<pdfrwt beam="2">  1        2 0.22599650E+00 0.19621520E+03</pdfrwt>
<totfact> 0.64052802E+01</totfact>
</mgrwt>
</event>
<event>
13    1  0.2101801E-008  0.1598768E+03  0.7546771E-02  0.1294335E+00
          2   -1    0    0  502    0  0.00000000000E+00  0.00000000000E+00  0.31927219308E+04  0.31927219308E+04  0.00000000000E+00 0. -1.
          2   -1    0    0  503    0 -0.00000000000E+00 -0.00000000000E+00 -0.15569673273E+04  0.15569673273E+04  0.00000000000E+00 0. -1.
         24    2    1    2    0    0  0.14530706825E+03 -0.89932460905E+03 -0.26531597119E+03  0.95136702810E+03  0.69338020406E+02 0.  0.
         25    2    1    2    0    0  0.11800762034E+03  0.12186514311E+04  0.59469275496E+02  0.12321519268E+04  0.12499866855E+03 0.  0.
         24    2    1    2    0    0 -0.14549722681E+03 -0.23416344883E+03  0.10797103809E+04  0.11171575630E+04  0.79148910936E+02 0.  0.
        -11    1    3    3    0    0  0.10741722523E+03 -0.68004092958E+03 -0.16916822057E+03  0.70895134743E+03  0.00000000000E+00 0.  1.
         12    1    3    3    0    0  0.37889843020E+02 -0.21928367947E+03 -0.96147750618E+02  0.24241568067E+03  0.00000000000E+00 0. -1.
        -13    1    5    5    0    0 -0.78042128821E+02 -0.17622073563E+03  0.83012053670E+03  0.85219975768E+03  0.00000000000E+00 0.  1.
         14    1    5    5    0    0 -0.67455097987E+02 -0.57942713200E+02  0.24958984422E+03  0.26495780531E+03  0.00000000000E+00 0. -1.
          5    1    4    4  501    0  0.47241150709E+02  0.95261750037E+03  0.72232338634E+02  0.95653093472E+03  0.47000000000E+01 0.  1.
         -5    1    4    4    0  501  0.70766469631E+02  0.26603393072E+03 -0.12763063139E+02  0.27562099212E+03  0.47000000000E+01 0.  1.
          1    1    1    2  502    0 -0.27819048976E+02  0.47226789545E+02  0.10860751576E+04  0.10874573634E+04  0.00000000000E+00 0. -1.
          1    1    1    2  503    0 -0.89998412807E+02 -0.13239016275E+03 -0.32418423936E+03  0.36155537688E+03  0.00000000000E+00 0. -1.
<mgrwt>
<rscale>  0 0.93611111E+02</rscale>
<asrwt>0</asrwt>
<pdfrwt beam="1">  1        2 0.46951793E+00 0.54811214E+02</pdfrwt>
<pdfrwt beam="2">  1        2 0.22896578E+00 0.15987678E+03</pdfrwt>
<totfact> 0.56808411E+00</totfact>
</mgrwt>
</event>
<event>
13    1  0.2101801E-008  0.9656136E+02  0.7546771E-02  0.1329571E+00
          2   -1    0    0  502    0  0.00000000000E+00  0.00000000000E+00  0.10365099184E+04  0.10365099184E+04  0.00000000000E+00 0. -1.
          2   -1    0    0  503    0 -0.00000000000E+00 -0.00000000000E+00 -0.30461786108E+04  0.30461786108E+04  0.00000000000E+00 0. -1.
         24    2    1    2    0    0  0.59206545558E+02 -0.14003144493E+03 -0.78104689482E+02  0.18954818840E+03  0.81938712450E+02 0.  0.
         25    2    1    2    0    0 -0.27966148833E+03  0.59737053744E+02  0.37576592019E+03  0.48847032144E+03  0.12499665800E+03 0.  0.
         24    2    1    2    0    0  0.93716073551E+02  0.22389710301E+01 -0.16204097703E+03  0.20319311247E+03  0.79009159512E+02 0.  0.
        -11    1    3    3    0    0  0.70694895285E+02 -0.11149823034E+03 -0.86288240404E+02  0.15771900336E+03  0.00000000000E+00 0.  1.
         12    1    3    3    0    0 -0.11488349727E+02 -0.28533214592E+02  0.81835509216E+01  0.31829185037E+02  0.00000000000E+00 0. -1.
        -13    1    5    5    0    0  0.23839180067E+02  0.14421353662E+02 -0.17586477366E+01  0.27917284781E+02  0.00000000000E+00 0.  1.
         14    1    5    5    0    0  0.69876893484E+02 -0.12182382632E+02 -0.16028232929E+03  0.17527582769E+03  0.00000000000E+00 0. -1.
          5    1    4    4  501    0 -0.28482314404E+03  0.57310017762E+02  0.32008946579E+03  0.43230546796E+03  0.47000000000E+01 0. -1.
         -5    1    4    4    0  501  0.51616557046E+01  0.24270359818E+01  0.55676454393E+02  0.56164853485E+02  0.47000000000E+01 0. -1.
          1    1    1    2  502    0  0.65900277438E+02  0.31673754346E+01  0.52515866906E+03  0.52928679043E+03  0.00000000000E+00 0. -1.
          1    1    1    2  503    0  0.60838591785E+02  0.74888044726E+02 -0.26704476151E+04  0.26721901165E+04  0.00000000000E+00 0. -1.
<mgrwt>
<rscale>  0 0.79817077E+02</rscale>
<asrwt>0</asrwt>
<pdfrwt beam="1">  1        2 0.15242793E+00 0.65976351E+02</pdfrwt>
<pdfrwt beam="2">  1        2 0.44796744E+00 0.96561355E+02</pdfrwt>
<totfact> 0.12238313E+01</totfact>
</mgrwt>
</event>
<event>
13    1  0.2101801E-008  0.4251181E+02  0.7546771E-02  0.1499560E+00
          2   -1    0    0  502    0  0.00000000000E+00  0.00000000000E+00  0.13529053098E+04  0.13529053098E+04  0.00000000000E+00 0. -1.
          2   -1    0    0  503    0 -0.00000000000E+00 -0.00000000000E+00 -0.15703510135E+04  0.15703510135E+04  0.00000000000E+00 0. -1.
         24    2    1    2    0    0  0.79996533802E+02 -0.16821654255E+03 -0.90012520467E+02  0.22180578255E+03  0.79995629420E+02 0.  0.
         25    2    1    2    0    0  0.39042777797E+02  0.25453218061E+03 -0.10312092501E+03  0.30425254731E+03  0.12499887160E+03 0.  0.
         24    2    1    2    0    0 -0.53408784987E+02 -0.76223851486E+02 -0.11830151013E+01  0.12452002728E+03  0.82711932752E+02 0.  0.
        -11    1    3    3    0    0  0.80468817182E+02 -0.17361657827E+03 -0.74457896639E+02  0.20533369222E+03  0.00000000000E+00 0.  1.
         12    1    3    3    0    0 -0.47228337946E+00  0.54000357257E+01 -0.15554623828E+02  0.16472090331E+02  0.00000000000E+00 0. -1.
        -13    1    5    5    0    0 -0.39894178080E+02 -0.46212115826E+01 -0.25652274190E+02  0.47654382928E+02  0.00000000000E+00 0.  1.
         14    1    5    5    0    0 -0.13514606907E+02 -0.71602639904E+02  0.24469259089E+02  0.76865644350E+02  0.00000000000E+00 0. -1.
          5    1    4    4  501    0  0.49612687416E+02  0.12853837502E+03 -0.11170743156E+03  0.17743780001E+03  0.47000000000E+01 0. -1.
         -5    1    4    4    0  501 -0.10569909619E+02  0.12599380560E+03  0.85865065527E+01  0.12681474730E+03  0.47000000000E+01 0. -1.
          1    1    1    2  502    0 -0.38101336172E+02  0.18830371374E+02  0.11240254064E+04  0.11248286131E+04  0.00000000000E+00 0. -1.
          1    1    1    2  503    0 -0.27529190441E+02 -0.28922157957E+02 -0.11471546495E+04  0.11478493531E+04  0.00000000000E+00 0. -1.
<mgrwt>
<rscale>  0 0.41200316E+02</rscale>
<asrwt>0</asrwt>
<pdfrwt beam="1">  1        2 0.19895667E+00 0.42511811E+02</pdfrwt>
<pdfrwt beam="2">  1        2 0.23093397E+00 0.39929282E+02</pdfrwt>
<totfact> 0.50248136E+01</totfact>
</mgrwt>
</event>
<event>
13    1  0.2101801E-008  0.1338702E+03  0.7546771E-02  0.1265747E+00
          2   -1    0    0  502    0  0.00000000000E+00  0.00000000000E+00  0.26332470471E+04  0.26332470471E+04  0.00000000000E+00 0. -1.
          2   -1    0    0  503    0 -0.00000000000E+00 -0.00000000000E+00 -0.16555686593E+04  0.16555686593E+04  0.00000000000E+00 0. -1.
         24    2    1    2    0    0  0.31377187947E+03 -0.74000890437E+02 -0.30333993274E+03  0.45001761740E+03  0.81066744381E+02 0.  0.
         25    2    1    2    0    0 -0.37607849692E+03  0.12486002717E+03  0.89007699783E+03  0.98228672578E+03  0.12500034942E+03 0.  0.
         24    2    1    2    0    0  0.80423596320E+01 -0.16301257242E+03 -0.84998513668E+02  0.20174183314E+03  0.82687614532E+02 0.  0.
        -11    1    3    3    0    0  0.17376580820E+03 -0.80391783976E+02 -0.15957669966E+03  0.24924309039E+03  0.00000000000E+00 0.  1.
         12    1    3    3    0    0  0.14000607127E+03  0.63908935385E+01 -0.14376323308E+03  0.20077452702E+03  0.00000000000E+00 0. -1.
        -13    1    5    5    0    0  0.30416451886E+02 -0.17203604890E+02 -0.22306508434E+02  0.41457265769E+02  0.00000000000E+00 0.  1.
         14    1    5    5    0    0 -0.22374092254E+02 -0.14580896753E+03 -0.62692005233E+02  0.16028456737E+03  0.00000000000E+00 0. -1.
          5    1    4    4  501    0 -0.10844827568E+03  0.35820152161E+02  0.13889255125E+03  0.17988146817E+03  0.47000000000E+01 0.  1.
         -5    1    4    4    0  501 -0.26763022125E+03  0.89039875009E+02  0.75118444658E+03  0.80240525762E+03  0.47000000000E+01 0.  1.
          1    1    1    2  502    0 -0.66607049427E+02  0.54282622220E+02  0.15600467208E+04  0.15624112369E+04  0.00000000000E+00 0. -1.
          1    1    1    2  503    0  0.12087130725E+03  0.57870813468E+02 -0.10841068843E+04  0.10923582932E+04  0.00000000000E+00 0. -1.
<mgrwt>
<rscale>  0 0.10725107E+03</rscale>
<asrwt>0</asrwt>
<pdfrwt beam="1">  1        2 0.38724221E+00 0.85924980E+02</pdfrwt>
<pdfrwt beam="2">  1        2 0.24346598E+00 0.13387018E+03</pdfrwt>
<totfact> 0.93430336E+00</totfact>
</mgrwt>
</event>
<event>
13    1  0.2101801E-008  0.1041652E+03  0.7546771E-02  0.1315981E+00
          2   -1    0    0  502    0  0.00000000000E+00  0.00000000000E+00  0.17978954940E+04  0.17978954940E+04  0.00000000000E+00 0. -1.
          2   -1    0    0  503    0 -0.00000000000E+00 -0.00000000000E+00 -0.56405033439E+04  0.56405033439E+04  0.00000000000E+00 0. -1.
         24    2    1    2    0    0 -0.18943922604E+03  0.29048190111E+02 -0.17889586814E+04  0.18009878485E+04  0.80330872740E+02 0.  0.
         25    2    1    2    0    0  0.31606225819E+03  0.54156175650E+02  0.98207983887E+03  0.10406414040E+04  0.12500191777E+03 0.  0.
         24    2    1    2    0    0  0.73208739872E+01 -0.73127976021E+02  0.34226765861E+01  0.11044681352E+03  0.82374072551E+02 0.  0.
        -11    1    5    5    0    0 -0.33199482574E+02 -0.13666922448E+02 -0.99588541708E+01  0.37258142584E+02  0.00000000000E+00 0.  1.
         12    1    5    5    0    0  0.40520356561E+02 -0.59461053573E+02  0.13381530757E+02  0.73188670936E+02  0.00000000000E+00 0. -1.
        -11    1    3    3    0    0 -0.12771128616E+03  0.54784857305E+02 -0.13176628502E+04  0.13249705431E+04  0.00000000000E+00 0.  1.
         12    1    3    3    0    0 -0.61727939878E+02 -0.25736667194E+02 -0.47129583117E+03  0.47601730544E+03  0.00000000000E+00 0. -1.
          5    1    4    4  501    0  0.18149855498E+03  0.93005021542E+02  0.58977180634E+03  0.62405491189E+03  0.47000000000E+01 0.  1.
         -5    1    4    4    0  501  0.13456370320E+03 -0.38848845892E+02  0.39230803253E+03  0.41658649214E+03  0.47000000000E+01 0.  1.
          1    1    1    2  502    0 -0.40427886292E+02 -0.55940431789E+02  0.72121690202E+03  0.72451194998E+03  0.00000000000E+00 0. -1.
          1    1    1    2  503    0 -0.93516019846E+02  0.45864042049E+02 -0.37603685860E+04  0.37618108218E+04  0.00000000000E+00 0. -1.
<mgrwt>
<rscale>  0 0.84790748E+02</rscale>
<asrwt>0</asrwt>
<pdfrwt beam="1">  1        2 0.26439640E+00 0.69019895E+02</pdfrwt>
<pdfrwt beam="2">  1        2 0.82948576E+00 0.10416520E+03</pdfrwt>
<totfact> 0.36468898E-02</totfact>
</mgrwt>
</event>
<event>
13    1  0.2101801E-008  0.1902835E+03  0.7546771E-02  0.1269931E+00
          2   -1    0    0  503    0  0.00000000000E+00  0.00000000000E+00  0.43732287064E+04  0.43732287064E+04  0.00000000000E+00 0. -1.
          2   -1    0    0  502    0 -0.00000000000E+00 -0.00000000000E+00 -0.15749219005E+04  0.15749219005E+04  0.00000000000E+00 0. -1.
         24    2    1    2    0    0  0.75631376189E+02 -0.27269662398E+02  0.31084694810E+02  0.11844962278E+03  0.81242324763E+02 0.  0.
         25    2    1    2    0    0  0.22920021976E+02  0.26275600167E+03  0.27131463341E+04  0.27288009209E+04  0.12500156623E+03 0.  0.
         24    2    1    2    0    0  0.67330920050E+02 -0.20081064104E+02  0.39924292120E+03  0.41321599564E+03  0.80098982473E+02 0.  0.
        -11    1    3    3    0    0 -0.10904410645E+02 -0.29567423099E+01 -0.13918390922E+02  0.17926798445E+02  0.00000000000E+00 0.  1.
         12    1    3    3    0    0  0.86535786834E+02 -0.24312920088E+02  0.45003085733E+02  0.10052282433E+03  0.00000000000E+00 0. -1.
        -11    1    5    5    0    0 -0.84889529613E+01  0.11597232189E+02  0.17096714920E+02  0.22335079536E+02  0.00000000000E+00 0.  1.
         12    1    5    5    0    0  0.75819873012E+02 -0.31678296292E+02  0.38214620628E+03  0.39088091610E+03  0.00000000000E+00 0. -1.
          5    1    4    4  501    0 -0.20234485226E+02  0.67308098296E+02  0.33977304799E+03  0.34699802395E+03  0.47000000000E+01 0. -1.
         -5    1    4    4    0  501  0.43154507202E+02  0.19544790337E+03  0.23733732861E+04  0.23818028969E+04  0.47000000000E+01 0. -1.
          1    1    1    2  502    0 -0.20334202017E+03 -0.25974527368E+03 -0.14977471290E+04  0.15336433897E+04  0.00000000000E+00 0. -1.
          1    1    1    2  503    0  0.37459701953E+02  0.44339998515E+02  0.11525799849E+04  0.11540406779E+04  0.00000000000E+00 0. -1.
<mgrwt>
<rscale>  0 0.10509556E+03</rscale>
<asrwt>0</asrwt>
<pdfrwt beam="1">  1        2 0.64312186E+00 0.58045368E+02</pdfrwt>
<pdfrwt beam="2">  1        2 0.23160616E+00 0.19028350E+03</pdfrwt>
<totfact> 0.99341988E-01</totfact>
</mgrwt>
</event>
<event>
13    1  0.2101801E-008  0.9898824E+02  0.7546771E-02  0.1341479E+00
          2   -1    0    0  502    0  0.00000000000E+00  0.00000000000E+00  0.55864520363E+03  0.55864520363E+03  0.00000000000E+00 0. -1.
          2   -1    0    0  503    0 -0.00000000000E+00 -0.00000000000E+00 -0.13186230941E+04  0.13186230941E+04  0.00000000000E+00 0. -1.
         24    2    1    2    0    0 -0.14355467214E+03  0.72446579860E+02 -0.27349881885E+03  0.32881857633E+03  0.86392137360E+02 0.  0.
         25    2    1    2    0    0  0.16998472629E+03 -0.45889888103E+02 -0.29602026937E+03  0.36641107375E+03  0.12501354359E+03 0.  0.
         24    2    1    2    0    0  0.27697238099E+01 -0.56434224694E+02 -0.59117963418E+02  0.11448194827E+03  0.80116726061E+02 0.  0.
        -13    1    5    5    0    0 -0.25223957708E+02 -0.62325837659E+02 -0.29879986524E+02  0.73576977900E+02  0.00000000000E+00 0.  1.
         14    1    5    5    0    0  0.27993681518E+02  0.58916129643E+01 -0.29237976894E+02  0.40904970372E+02  0.00000000000E+00 0. -1.
        -13    1    3    3    0    0 -0.75975722763E+02  0.15934439047E+02 -0.60819970765E+02  0.98616862863E+02  0.00000000000E+00 0.  1.
         14    1    3    3    0    0 -0.67578949378E+02  0.56512140813E+02 -0.21267884809E+03  0.23020171346E+03  0.00000000000E+00 0. -1.
          5    1    4    4  501    0 -0.10886695356E+02 -0.18721960999E+02 -0.81527833271E+02  0.84486150091E+02  0.47000000000E+01 0. -1.
         -5    1    4    4    0  501  0.18087142165E+03 -0.27167927104E+02 -0.21449243610E+03  0.28192492365E+03  0.47000000000E+01 0. -1.
          1    1    1    2  502    0 -0.76378317212E+02  0.63630940870E+02  0.46139807599E+03  0.47198594100E+03  0.00000000000E+00 0. -1.
          1    1    1    2  503    0  0.47178539248E+02 -0.33753407933E+02 -0.59273891483E+03  0.59557075840E+03  0.00000000000E+00 0. -1.
<mgrwt>
<rscale>  0 0.75777719E+02</rscale>
<asrwt>0</asrwt>
<pdfrwt beam="1">  1        2 0.82153708E-01 0.98988242E+02</pdfrwt>
<pdfrwt beam="2">  1        2 0.19391516E+00 0.58009543E+02</pdfrwt>
<totfact> 0.18759152E+02</totfact>
</mgrwt>
</event>
<event>
13    1  0.2101801E-008  0.3334239E+03  0.7546771E-02  0.1227611E+00
          2   -1    0    0  502    0  0.00000000000E+00  0.00000000000E+00  0.24563277852E+04  0.24563277852E+04  0.00000000000E+00 0. -1.
          2   -1    0    0  503    0 -0.00000000000E+00 -0.00000000000E+00 -0.11356102455E+04  0.11356102455E+04  0.00000000000E+00 0. -1.
         24    2    1    2    0    0 -0.23965334306E+03 -0.48655624213E+03  0.69926614804E+01  0.54822647390E+03  0.79578060870E+02 0.  0.
         25    2    1    2    0    0  0.24203969969E+03  0.50100385429E+02  0.45857470661E+03  0.53573087479E+03  0.12499417512E+03 0.  0.
         24    2    1    2    0    0  0.11356255669E+03  0.88175234750E+02  0.73148872410E+03  0.75006862033E+03  0.82800093113E+02 0.  0.
        -11    1    3    3    0    0 -0.13784807432E+03 -0.31883283469E+03 -0.29694594284E+02  0.34862334547E+03  0.00000000000E+00 0.  1.
         12    1    3    3    0    0 -0.10180526873E+03 -0.16772340744E+03  0.36687255765E+02  0.19960312843E+03  0.00000000000E+00 0. -1.
        -11    1    5    5    0    0  0.63472291628E+02  0.91426548993E+00  0.23080475843E+03  0.23937502836E+03  0.00000000000E+00 0.  1.
         12    1    5    5    0    0  0.50090265066E+02  0.87260969260E+02  0.50068396566E+03  0.51069359197E+03  0.00000000000E+00 0. -1.
          5    1    4    4  501    0  0.19504422600E+03  0.39058910601E+02  0.44157795670E+03  0.48433565885E+03  0.47000000000E+01 0.  1.
         -5    1    4    4    0  501  0.46995473694E+02  0.11041474829E+02  0.16996749915E+02  0.51395215942E+02  0.47000000000E+01 0.  1.
          1    1    1    2  502    0 -0.42742368695E+02  0.27091449092E+02  0.90685036247E+03  0.90826121606E+03  0.00000000000E+00 0. -1.
          1    1    1    2  503    0 -0.73206544635E+02  0.32118917286E+03 -0.78318891498E+03  0.84965084563E+03  0.00000000000E+00 0. -1.
<mgrwt>
<rscale>  0 0.12989567E+03</rscale>
<asrwt>0</asrwt>
<pdfrwt beam="1">  1        2 0.36122468E+00 0.50604908E+02</pdfrwt>
<pdfrwt beam="2">  1        2 0.16700151E+00 0.33342388E+03</pdfrwt>
<totfact> 0.21654597E+01</totfact>
</mgrwt>
</event>
<event>
13    1  0.2101801E-008  0.1618566E+03  0.7546771E-02  0.1334809E+00
          4   -1    0    0  503    0 -0.00000000000E+00  0.00000000000E+00  0.83899219188E+03  0.83899219188E+03  0.00000000000E+00 0. -1.
          2   -1    0    0  502    0  0.00000000000E+00 -0.00000000000E+00 -0.23154061938E+04  0.23154061938E+04  0.00000000000E+00 0. -1.
         24    2    1    2    0    0  0.47486660736E+02 -0.65264532404E+02 -0.17691847276E+02  0.11580242801E+03  0.81134202004E+02 0.  0.
         25    2    1    2    0    0  0.23725706366E+02  0.66950875574E+02 -0.13025793509E+02  0.14436113028E+03  0.12500054302E+03 0.  0.
         24    2    1    2    0    0 -0.11337489612E+03  0.11764052030E+03 -0.46869094142E+03  0.50304641677E+03  0.81800609867E+02 0.  0.
        -11    1    5    5    0    0 -0.15339057358E+02 -0.12086397445E+02 -0.38953137660E+02  0.43574242591E+02  0.00000000000E+00 0.  1.
         12    1    5    5    0    0 -0.98035838762E+02  0.12972691774E+03 -0.42973780376E+03  0.45947217418E+03  0.00000000000E+00 0. -1.
        -13    1    3    3    0    0 -0.20302998086E+02 -0.29534947230E+02  0.42558433422E+01  0.36092063417E+02  0.00000000000E+00 0.  1.
         14    1    3    3    0    0  0.67789658822E+02 -0.35729585175E+02 -0.21947690619E+02  0.79710364592E+02  0.00000000000E+00 0. -1.
          5    1    4    4  501    0  0.74643278802E+01  0.59380609075E+01 -0.62879854180E+02  0.63772586742E+02  0.47000000000E+01 0. -1.
         -5    1    4    4    0  501  0.16261378485E+02  0.61012814667E+02  0.49854060671E+02  0.80588543535E+02  0.47000000000E+01 0. -1.
          1    1    1    2  502    0  0.58072070869E+02 -0.15338866696E+03 -0.16795998848E+04  0.16875888781E+04  0.00000000000E+00 0. -1.
          3    1    1    2  503    0 -0.15909541850E+02  0.34061803494E+02  0.70259446500E+03  0.70359953257E+03  0.00000000000E+00 0. -1.
<mgrwt>
<rscale>  0 0.78005528E+02</rscale>
<asrwt>0</asrwt>
<pdfrwt beam="2">  1        2 0.34050091E+00 0.16185664E+03</pdfrwt>
<pdfrwt beam="1">  1        4 0.12338120E+00 0.37594148E+02</pdfrwt>
<totfact> 0.15625064E+00</totfact>
</mgrwt>
</event>
<event>
13    1  0.2101801E-008  0.1120329E+03  0.7546771E-02  0.1311319E+00
          2   -1    0    0  502    0  0.00000000000E+00  0.00000000000E+00  0.11536332443E+04  0.11536332443E+04  0.00000000000E+00 0. -1.
          2   -1    0    0  503    0 -0.00000000000E+00 -0.00000000000E+00 -0.70814201913E+03  0.70814201913E+03  0.00000000000E+00 0. -1.
         24    2    1    2    0    0  0.22388752160E+02  0.49283602970E+02 -0.17224253608E+03  0.19753897279E+03  0.80150014293E+02 0.  0.
         25    2    1    2    0    0 -0.28242515329E+01 -0.31034979632E+03  0.86906441437E+02  0.34569799574E+03  0.12501760766E+03 0.  0.
         24    2    1    2    0    0 -0.43283248096E+01  0.96354109978E+02 -0.11168163993E+03  0.16781048185E+03  0.79904444287E+02 0.  0.
        -11    1    3    3    0    0 -0.26977301287E+02  0.26201513375E+02 -0.42120586576E+02  0.56466254536E+02  0.00000000000E+00 0.  1.
         12    1    3    3    0    0  0.49366053447E+02  0.23082089595E+02 -0.13012194951E+03  0.14107271826E+03  0.00000000000E+00 0. -1.
        -11    1    5    5    0    0 -0.36880367545E+02  0.69679552112E+02 -0.92561564286E+02  0.12158554468E+03  0.00000000000E+00 0.  1.
         12    1    5    5    0    0  0.32552042735E+02  0.26674557866E+02 -0.19120075639E+02  0.46224937166E+02  0.00000000000E+00 0. -1.
          5    1    4    4  501    0 -0.27308543635E+02 -0.28033145943E+03  0.39747196728E+02  0.28448798454E+03  0.47000000000E+01 0.  1.
         -5    1    4    4    0  501  0.24484292102E+02 -0.30018336888E+02  0.47159244709E+02  0.61210011197E+02  0.47000000000E+01 0.  1.
          1    1    1    2  502    0  0.39673749038E+01  0.66811908074E+02  0.88551433962E+03  0.88804009864E+03  0.00000000000E+00 0. -1.
          1    1    1    2  503    0 -0.19203550722E+02  0.97900175295E+02 -0.24300537984E+03  0.26268771444E+03  0.00000000000E+00 0. -1.
<mgrwt>
<rscale>  0 0.86592817E+02</rscale>
<asrwt>0</asrwt>
<pdfrwt beam="1">  1        2 0.16965195E+00 0.66929598E+02</pdfrwt>
<pdfrwt beam="2">  1        2 0.10413853E+00 0.11203288E+03</pdfrwt>
<totfact> 0.17232586E+02</totfact>
</mgrwt>
</event>
<event>
13    1  0.2101801E-008  0.1455587E+03  0.7546771E-02  0.1312850E+00
          2   -1    0    0  503    0  0.00000000000E+00  0.00000000000E+00  0.31243760186E+04  0.31243760186E+04  0.00000000000E+00 0. -1.
          2   -1    0    0  502    0 -0.00000000000E+00 -0.00000000000E+00 -0.12455677896E+04  0.12455677896E+04  0.00000000000E+00 0. -1.
         24    2    1    2    0    0  0.14071996087E+03 -0.12121826671E+03 -0.24720591203E+03  0.31943253886E+03  0.80189827087E+02 0.  0.
         25    2    1    2    0    0 -0.24218555572E+03 -0.61324491281E+02  0.99135622428E+03  0.10299644244E+04  0.12500006186E+03 0.  0.
         24    2    1    2    0    0  0.15978993517E+03  0.44664591934E+02  0.52899980601E+03  0.55998143804E+03  0.78807785343E+02 0.  0.
        -11    1    3    3    0    0  0.11133888048E+03 -0.50481355805E+02 -0.17966507602E+03  0.21731141970E+03  0.00000000000E+00 0.  1.
         12    1    3    3    0    0  0.29381080385E+02 -0.70736910906E+02 -0.67540836009E+02  0.10212111916E+03  0.00000000000E+00 0. -1.
        -13    1    5    5    0    0  0.92830608018E+02  0.36578545985E+02  0.42091546967E+03  0.43257987057E+03  0.00000000000E+00 0.  1.
         14    1    5    5    0    0  0.66959327147E+02  0.80860459483E+01  0.10808433634E+03  0.12740156747E+03  0.00000000000E+00 0. -1.
          5    1    4    4  501    0 -0.16242271736E+03 -0.96269816848E+02  0.74721735976E+03  0.77071712676E+03  0.47000000000E+01 0.  1.
         -5    1    4    4    0  501 -0.79762838354E+02  0.34945325567E+02  0.24413886452E+03  0.25924729764E+03  0.47000000000E+01 0.  1.
          1    1    1    2  502    0 -0.50247990082E+02 -0.75060324152E+01 -0.92329637794E+03  0.92469313966E+03  0.00000000000E+00 0. -1.
          1    1    1    2  503    0 -0.80763502343E+01  0.14538419847E+03  0.15289544888E+04  0.15358722672E+04  0.00000000000E+00 0. -1.
<mgrwt>
<rscale>  0 0.85995276E+02</rscale>
<asrwt>0</asrwt>
<pdfrwt beam="1">  1        2 0.45946706E+00 0.14555874E+03</pdfrwt>
<pdfrwt beam="2">  1        2 0.18317173E+00 0.50805522E+02</pdfrwt>
<totfact> 0.82019317E+00</totfact>
</mgrwt>
</event>
<event>
13    1  0.2101801E-008  0.1060684E+03  0.7546771E-02  0.1359513E+00
          2   -1    0    0  503    0  0.00000000000E+00  0.00000000000E+00  0.32270083286E+04  0.32270083286E+04  0.00000000000E+00 0. -1.
          2   -1    0    0  502    0 -0.00000000000E+00 -0.00000000000E+00 -0.36017212515E+03  0.36017212515E+03  0.00000000000E+00 0. -1.
         24    2    1    2    0    0 -0.24317276253E+02 -0.83183356005E+02 -0.24915644537E+03  0.27578038078E+03  0.80405743057E+02 0.  0.
         25    2    1    2    0    0  0.86231492673E+02  0.90763072518E+01  0.73650210537E+03  0.75204937858E+03  0.12499866768E+03 0.  0.
         24    2    1    2    0    0  0.14819435243E+02  0.68191047450E+02  0.41845696166E+03  0.43165897980E+03  0.79709544380E+02 0.  0.
        -13    1    5    5    0    0 -0.26958418404E+02  0.32703047989E+02  0.10144054207E+03  0.10993829745E+03  0.00000000000E+00 0.  1.
         14    1    5    5    0    0  0.41777853647E+02  0.35487999461E+02  0.31701641959E+03  0.32172068235E+03  0.00000000000E+00 0. -1.
        -13    1    3    3    0    0 -0.90496749998E+01 -0.83216160373E+02 -0.12346942670E+03  0.14916945162E+03  0.00000000000E+00 0.  1.
         14    1    3    3    0    0 -0.15267601253E+02  0.32804367884E-01 -0.12568701867E+03  0.12661092917E+03  0.00000000000E+00 0. -1.
          5    1    4    4  501    0  0.14788953098E+02 -0.53732787688E+02  0.31436359444E+03  0.31929999235E+03  0.47000000000E+01 0. -1.
         -5    1    4    4    0  501  0.71442539574E+02  0.62809094939E+02  0.42213851093E+03  0.43274938623E+03  0.47000000000E+01 0. -1.
          1    1    1    2  502    0  0.46405000732E+02  0.12759970626E+01 -0.74852809374E+02  0.88079483040E+02  0.00000000000E+00 0. -1.
          1    1    1    2  503    0 -0.12313865239E+03  0.46400042405E+01  0.20358863911E+04  0.20396122315E+04  0.00000000000E+00 0. -1.
<mgrwt>
<rscale>  0 0.70170964E+02</rscale>
<asrwt>0</asrwt>
<pdfrwt beam="1">  1        2 0.47456003E+00 0.10606839E+03</pdfrwt>
<pdfrwt beam="2">  1        2 0.52966491E-01 0.46422540E+02</pdfrwt>
<totfact> 0.31404246E+01</totfact>
</mgrwt>
</event>
<event>
13    1  0.2101801E-008  0.7572546E+02  0.7546771E-02  0.1422176E+00
          2   -1    0    0  503    0  0.00000000000E+00  0.00000000000E+00  0.16525561029E+04  0.16525561029E+04  0.00000000000E+00 0. -1.
          2   -1    0    0  502    0 -0.00000000000E+00 -0.00000000000E+00 -0.12453537092E+04  0.12453537092E+04  0.00000000000E+00 0. -1.
         24    2    1    2    0    0  0.18528435452E+02 -0.87613816307E+02 -0.10968529447E+03  0.16165015126E+03  0.77977072592E+02 0.  0.
         25    2    1    2    0    0  0.14058540994E+03  0.72994929834E+02  0.81707206684E+03  0.84162025943E+03  0.12500152566E+03 0.  0.
         24    2    1    2    0    0 -0.72759237299E+02 -0.10359719183E+02  0.24371934386E+03  0.26685862456E+03  0.80082310992E+02 0.  0.
        -11    1    5    5    0    0 -0.20277149329E+02 -0.40884860531E+02  0.78030486901E+02  0.90396302422E+02  0.00000000000E+00 0.  1.
         12    1    5    5    0    0 -0.52482087970E+02  0.30525141349E+02  0.16568885696E+03  0.17646232214E+03  0.00000000000E+00 0. -1.
        -11    1    3    3    0    0 -0.23376261741E+02 -0.17032009815E+02 -0.62296322246E+01  0.29586268589E+02  0.00000000000E+00 0.  1.
         12    1    3    3    0    0  0.41904697194E+02 -0.70581806491E+02 -0.10345566225E+03  0.13206388267E+03  0.00000000000E+00 0. -1.
          5    1    4    4  501    0  0.97638392764E+02 -0.19342530483E+02  0.42239131350E+03  0.43398606077E+03  0.47000000000E+01 0.  1.
         -5    1    4    4    0  501  0.42947017171E+02  0.92337460317E+02  0.39468075334E+03  0.40763419866E+03  0.47000000000E+01 0.  1.
          1    1    1    2  502    0 -0.74670207965E+02 -0.12559860090E+02 -0.10838065807E+04  0.10864483855E+04  0.00000000000E+00 0. -1.
          1    1    1    2  503    0 -0.11684400123E+02  0.37538465746E+02  0.53990285813E+03  0.54133239127E+03  0.00000000000E+00 0. -1.
<mgrwt>
<rscale>  0 0.54563166E+02</rscale>
<asrwt>0</asrwt>
<pdfrwt beam="1">  1        2 0.24302296E+00 0.39314903E+02</pdfrwt>
<pdfrwt beam="2">  1        2 0.18314025E+00 0.75725458E+02</pdfrwt>
<totfact> 0.50118711E+01</totfact>
</mgrwt>
</event>
<event>
13    1  0.2101801E-008  0.3419465E+02  0.7546771E-02  0.1608090E+00
          2   -1    0    0  503    0  0.00000000000E+00  0.00000000000E+00  0.21777581496E+04  0.21777581496E+04  0.00000000000E+00 0. -1.
          2   -1    0    0  502    0 -0.00000000000E+00 -0.00000000000E+00 -0.32867731829E+04  0.32867731829E+04  0.00000000000E+00 0. -1.
         24    2    1    2    0    0 -0.77300437794E+03 -0.62749669905E+03 -0.10348145154E+04  0.14374639954E+04  0.64604806671E+02 0.  0.
         25    2    1    2    0    0  0.65964334571E+03 -0.12750334461E+03 -0.45745576526E+03  0.82236091232E+03  0.12500098602E+03 0.  0.
         24    2    1    2    0    0  0.16450919640E+03  0.74917458833E+03 -0.32763832395E+03  0.83788269669E+03  0.79841734669E+02 0.  0.
        -13    1    5    5    0    0  0.23476471253E+02  0.27891063111E+03 -0.13051325603E+03  0.30883004201E+03  0.00000000000E+00 0.  1.
         14    1    5    5    0    0  0.14103272515E+03  0.47026395722E+03 -0.19712506792E+03  0.52905265468E+03  0.00000000000E+00 0. -1.
        -13    1    3    3    0    0 -0.59722619974E+03 -0.46361979553E+03 -0.75248828934E+03  0.10667057111E+04  0.00000000000E+00 0.  1.
         14    1    3    3    0    0 -0.17577817820E+03 -0.16387690351E+03 -0.28232622610E+03  0.37075828430E+03  0.00000000000E+00 0. -1.
          5    1    4    4  501    0  0.25096163408E+02  0.28936208255E+01  0.52960666314E+01  0.26236020678E+02  0.47000000000E+01 0. -1.
         -5    1    4    4    0  501  0.63454718231E+03 -0.13039696543E+03 -0.46275183189E+03  0.79612489164E+03  0.47000000000E+01 0. -1.
          1    1    1    2  502    0 -0.32524282322E+02 -0.10534051000E+02 -0.82751227331E+03  0.82821818239E+03  0.00000000000E+00 0. -1.
          1    1    1    2  503    0 -0.18623881856E+02  0.16359506324E+02  0.15384058446E+04  0.15386055457E+04  0.00000000000E+00 0. -1.
<mgrwt>
<rscale>  0 0.29114305E+02</rscale>
<asrwt>0</asrwt>
<pdfrwt beam="1">  1        2 0.32025855E+00 0.24788756E+02</pdfrwt>
<pdfrwt beam="2">  1        2 0.48334900E+00 0.34194648E+02</pdfrwt>
<totfact> 0.34108280E+00</totfact>
</mgrwt>
</event>
<event>
13    1  0.2101801E-008  0.1698282E+03  0.7546771E-02  0.1203010E+00
          2   -1    0    0  503    0  0.00000000000E+00  0.00000000000E+00  0.64781225385E+03  0.64781225385E+03  0.00000000000E+00 0. -1.
          2   -1    0    0  502    0 -0.00000000000E+00 -0.00000000000E+00 -0.21382687097E+04  0.21382687097E+04  0.00000000000E+00 0. -1.
         24    2    1    2    0    0 -0.95849693265E+02  0.49251555932E+02 -0.89722803384E+03  0.90722767497E+03  0.80193703390E+02 0.  0.
         25    2    1    2    0    0 -0.10699043689E+03 -0.19756266785E+03 -0.30505109181E+03  0.39895302285E+03  0.12501753681E+03 0.  0.
         24    2    1    2    0    0  0.13171629855E+01 -0.69049330666E+02  0.25859351509E+02  0.10872945105E+03  0.79898951691E+02 0.  0.
        -11    1    3    3    0    0 -0.88278048700E+02  0.87200169905E+01 -0.49442422515E+03  0.50231898928E+03  0.00000000000E+00 0.  1.
         12    1    3    3    0    0 -0.75716445643E+01  0.40531538941E+02 -0.40280380869E+03  0.40490868569E+03  0.00000000000E+00 0. -1.
        -13    1    5    5    0    0 -0.35910251073E+02 -0.55051891306E+02  0.18497629503E+02  0.68281909505E+02  0.00000000000E+00 0.  1.
         14    1    5    5    0    0  0.37227414058E+02 -0.13997439361E+02  0.73617220067E+01  0.40447541545E+02  0.00000000000E+00 0. -1.
          5    1    4    4  501    0  0.27739752673E+02 -0.48830920655E+02 -0.64831684886E+02  0.85902212169E+02  0.47000000000E+01 0. -1.
         -5    1    4    4    0  501 -0.13473018957E+03 -0.14873174720E+03 -0.24021940692E+03  0.31305081068E+03  0.47000000000E+01 0. -1.
          1    1    1    2  502    0  0.45324334125E+02  0.19262997941E+03 -0.81871676109E+03  0.84229314322E+03  0.00000000000E+00 0. -1.
          1    1    1    2  503    0  0.15619863305E+03  0.24730463180E+02  0.50468007942E+03  0.52887767143E+03  0.00000000000E+00 0. -1.
<mgrwt>
<rscale>  0 0.14795408E+03</rscale>
<asrwt>0</asrwt>
<pdfrwt beam="1">  1        2 0.95266508E-01 0.12889739E+03</pdfrwt>
<pdfrwt beam="2">  1        2 0.31445128E+00 0.16982818E+03</pdfrwt>
<totfact> 0.57200123E+01</totfact>
</mgrwt>
</event>
<event>
13    1  0.2101801E-008  0.1076751E+03  0.7546771E-02  0.1433154E+00
          2   -1    0    0  503    0  0.00000000000E+00  0.00000000000E+00  0.55026391263E+03  0.55026391263E+03  0.00000000000E+00 0. -1.
          2   -1    0    0  502    0 -0.00000000000E+00 -0.00000000000E+00 -0.16803404676E+04  0.16803404676E+04  0.00000000000E+00 0. -1.
         24    2    1    2    0    0  0.96193064233E+02  0.10285846103E+03 -0.62798489883E+03  0.64873435393E+03  0.81598162970E+02 0.  0.
         25    2    1    2    0    0 -0.16121512188E+02  0.72516175256E+02  0.35325959067E+03  0.38201515065E+03  0.12499895237E+03 0.  0.
         24    2    1    2    0    0  0.18795736709E+02 -0.12315676811E+03 -0.34197686766E+03  0.37263300271E+03  0.79914375696E+02 0.  0.
        -11    1    3    3    0    0  0.63601095427E+02  0.53995644963E+02 -0.51170958394E+03  0.51846632225E+03  0.00000000000E+00 0.  1.
         12    1    3    3    0    0  0.32591968806E+02  0.48862816066E+02 -0.11627531489E+03  0.13026803168E+03  0.00000000000E+00 0. -1.
        -11    1    5    5    0    0  0.19421649050E+02 -0.53390488472E+02 -0.61998686230E+02  0.84092697694E+02  0.00000000000E+00 0.  1.
         12    1    5    5    0    0 -0.62591234133E+00 -0.69766279636E+02 -0.27997818143E+03  0.28854030502E+03  0.00000000000E+00 0. -1.
          5    1    4    4  501    0 -0.25229713787E+02 -0.21742168180E+02  0.29772671550E+02  0.44919509193E+02  0.47000000000E+01 0. -1.
         -5    1    4    4    0  501  0.91082015990E+01  0.94258343435E+02  0.32348691913E+03  0.33709564146E+03  0.47000000000E+01 0. -1.
          1    1    1    2  502    0 -0.81284516671E+02 -0.70596020040E+02 -0.66490835767E+03  0.67356818125E+03  0.00000000000E+00 0. -1.
          1    1    1    2  503    0 -0.17582772084E+02  0.18378151864E+02  0.15153397849E+03  0.15365369172E+03  0.00000000000E+00 0. -1.
<mgrwt>
<rscale>  0 0.52332149E+02</rscale>
<asrwt>0</asrwt>
<pdfrwt beam="1">  1        2 0.80921165E-01 0.25434432E+02</pdfrwt>
<pdfrwt beam="2">  1        2 0.24710889E+00 0.10767505E+03</pdfrwt>
<totfact> 0.12304428E+02</totfact>
</mgrwt>
</event>
<event>
13    1  0.2101801E-008  0.1325318E+03  0.7546771E-02  0.1415106E+00
          2   -1    0    0  503    0  0.00000000000E+00  0.00000000000E+00  0.11195849906E+04  0.11195849906E+04  0.00000000000E+00 0. -1.
          2   -1    0    0  502    0 -0.00000000000E+00 -0.00000000000E+00 -0.60200570026E+03  0.60200570026E+03  0.00000000000E+00 0. -1.
         24    2    1    2    0    0 -0.72986072043E+02 -0.81205812745E+02 -0.53048421597E+02  0.14611870984E+03  0.81333828115E+02 0.  0.
         25    2    1    2    0    0  0.13064500324E+03  0.20728957519E+03  0.26879558813E+03  0.38459448503E+03  0.12499905944E+03 0.  0.
         24    2    1    2    0    0  0.13347438285E+02 -0.42120559237E+02  0.73260139193E+02  0.11785350442E+03  0.81056183539E+02 0.  0.
        -11    1    3    3    0    0 -0.54654881334E+02 -0.29048978984E+01 -0.12881782082E+02  0.56227527022E+02  0.00000000000E+00 0.  1.
         12    1    3    3    0    0 -0.18331190709E+02 -0.78300914847E+02 -0.40166639515E+02  0.89891182819E+02  0.00000000000E+00 0. -1.
        -11    1    5    5    0    0 -0.37837137112E+01 -0.58143067552E+02  0.74242963934E+02  0.94376641641E+02  0.00000000000E+00 0.  1.
         12    1    5    5    0    0  0.17131151996E+02  0.16022508314E+02 -0.98282474102E+00  0.23476862778E+02  0.00000000000E+00 0. -1.
          5    1    4    4  501    0  0.56126540356E+01  0.86452093594E+02  0.15218318734E+03  0.17517784929E+03  0.47000000000E+01 0. -1.
         -5    1    4    4    0  501  0.12503234921E+03  0.12083748160E+03  0.11661240079E+03  0.20941663574E+03  0.47000000000E+01 0. -1.
          1    1    1    2  502    0 -0.79017663634E+02 -0.10629071842E+03 -0.41161460618E+03  0.43239807124E+03  0.00000000000E+00 0. -1.
          1    1    1    2  503    0  0.80112941469E+01  0.22327515213E+02  0.64018659075E+03  0.64062592029E+03  0.00000000000E+00 0. -1.
<mgrwt>
<rscale>  0 0.56069800E+02</rscale>
<asrwt>0</asrwt>
<pdfrwt beam="1">  1        2 0.16464485E+00 0.23721273E+02</pdfrwt>
<pdfrwt beam="2">  1        2 0.88530250E-01 0.13253178E+03</pdfrwt>
<totfact> 0.22908287E+02</totfact>
</mgrwt>
</event>
<event>
13    1  0.2101801E-008  0.1603401E+03  0.7546771E-02  0.1254358E+00
          2   -1    0    0  502    0  0.00000000000E+00  0.00000000000E+00  0.12151886831E+04  0.12151886831E+04  0.00000000000E+00 0. -1.
          2   -1    0    0  503    0 -0.00000000000E+00 -0.00000000000E+00 -0.23223795100E+04  0.23223795100E+04  0.00000000000E+00 0. -1.
         24    2    1    2    0    0 -0.13040740912E+03  0.15698332699E+02 -0.44447849429E+03  0.47045656995E+03  0.80720024306E+02 0.  0.
         25    2    1    2    0    0 -0.50433926715E+00  0.55217993410E+02  0.20910190312E+02  0.13824689613E+03  0.12500274828E+03 0.  0.
         24    2    1    2    0    0  0.51065201641E+02  0.78538061329E+02 -0.75000446177E+02  0.14387668546E+03  0.79369715867E+02 0.  0.
        -11    1    3    3    0    0 -0.31258705202E+02 -0.31255779668E+02 -0.14034685850E+03  0.14714370902E+03  0.00000000000E+00 0.  1.
         12    1    3    3    0    0 -0.99148703915E+02  0.46954112367E+02 -0.30413163579E+03  0.32331286093E+03  0.00000000000E+00 0. -1.
        -13    1    5    5    0    0  0.72029235627E+02  0.54064474542E+02 -0.60786217439E+02  0.10865607403E+03  0.00000000000E+00 0.  1.
         14    1    5    5    0    0 -0.20964033986E+02  0.24473586787E+02 -0.14214228738E+02  0.35220611435E+02  0.00000000000E+00 0. -1.
          5    1    4    4  501    0 -0.29834827215E+02  0.19856760496E+02 -0.45030238389E+02  0.57742707087E+02  0.47000000000E+01 0. -1.
         -5    1    4    4    0  501  0.29330487948E+02  0.35361232914E+02  0.65940428702E+02  0.80504189046E+02  0.47000000000E+01 0. -1.
          1    1    1    2  502    0  0.13350906634E+03 -0.89805283026E+02  0.10812780248E+04  0.10931842601E+04  0.00000000000E+00 0. -1.
          1    1    1    2  503    0 -0.53662519601E+02 -0.59649104412E+02 -0.16899001016E+04  0.16918037814E+04  0.00000000000E+00 0. -1.
<mgrwt>
<rscale>  0 0.11342360E+03</rscale>
<asrwt>0</asrwt>
<pdfrwt beam="1">  1        2 0.17870422E+00 0.16034008E+03</pdfrwt>
<pdfrwt beam="2">  1        2 0.34152640E+00 0.80235165E+02</pdfrwt>
<totfact> 0.22244926E+01</totfact>
</mgrwt>
</event>
<event>
13    1  0.2101801E-008  0.1854774E+03  0.7546771E-02  0.1167220E+00
          2   -1    0    0  503    0  0.00000000000E+00  0.00000000000E+00  0.20735402910E+04  0.20735402910E+04  0.00000000000E+00 0. -1.
          2   -1    0    0  502    0 -0.00000000000E+00 -0.00000000000E+00 -0.12107910443E+04  0.12107910443E+04  0.00000000000E+00 0. -1.
         24    2    1    2    0    0  0.20596708841E+03 -0.15364005735E+03 -0.19337400021E+03  0.33113503653E+03  0.78925279383E+02 0.  0.
         25    2    1    2    0    0 -0.28122521462E+03 -0.59650365831E+02 -0.66791305221E+02  0.32051789150E+03  0.12499941136E+03 0.  0.
         24    2    1    2    0    0 -0.21729342431E+02  0.87340260256E+02 -0.36791959587E+02  0.12607044507E+03  0.80247264412E+02 0.  0.
        -11    1    3    3    0    0  0.82555572100E+02 -0.77791038433E+02 -0.40280397135E+02  0.12037183449E+03  0.00000000000E+00 0.  1.
         12    1    3    3    0    0  0.12341151631E+03 -0.75849018919E+02 -0.15309360308E+03  0.21076320204E+03  0.00000000000E+00 0. -1.
        -13    1    5    5    0    0 -0.50564068196E+02  0.40789845348E+02 -0.12457542670E+02  0.66149276984E+02  0.00000000000E+00 0.  1.
         14    1    5    5    0    0  0.28834725765E+02  0.46550414908E+02 -0.24334416916E+02  0.59921168085E+02  0.00000000000E+00 0. -1.
          5    1    4    4  501    0 -0.12606748951E+03 -0.41461937171E+00 -0.86855214915E+02  0.15316364509E+03  0.47000000000E+01 0. -1.
         -5    1    4    4    0  501 -0.15515772511E+03 -0.59235746460E+02  0.20063909694E+02  0.16735424641E+03  0.47000000000E+01 0. -1.
          1    1    1    2  502    0 -0.10859671384E+02  0.26525203599E+03 -0.64282607407E+03  0.69548683421E+03  0.00000000000E+00 0. -1.
          1    1    1    2  503    0  0.10784714002E+03 -0.13930187306E+03  0.18025325858E+04  0.18111211280E+04  0.00000000000E+00 0. -1.
<mgrwt>
<rscale>  0 0.18060330E+03</rscale>
<asrwt>0</asrwt>
<pdfrwt beam="1">  1        2 0.30493240E+00 0.17585730E+03</pdfrwt>
<pdfrwt beam="2">  1        2 0.17805751E+00 0.18547739E+03</pdfrwt>
<totfact> 0.26882854E+01</totfact>
</mgrwt>
</event>
<event>
13    1  0.2101801E-008  0.1283929E+03  0.7546771E-02  0.1330075E+00
          2   -1    0    0  502    0  0.00000000000E+00  0.00000000000E+00  0.28225478447E+04  0.28225478447E+04  0.00000000000E+00 0. -1.
          2   -1    0    0  503    0 -0.00000000000E+00 -0.00000000000E+00 -0.58478547948E+03  0.58478547948E+03  0.00000000000E+00 0. -1.
         24    2    1    2    0    0  0.32785946031E+03  0.15557743182E+03 -0.22666789662E+03  0.43556277697E+03  0.81488860091E+02 0.  0.
         25    2    1    2    0    0 -0.22745692754E+03  0.88690274164E+02  0.70228195450E+03  0.75394329571E+03  0.12501172311E+03 0.  0.
         24    2    1    2    0    0 -0.93194733422E+02 -0.10183117398E+03  0.93662418003E+02  0.18932219392E+03  0.89528756464E+02 0.  0.
        -11    1    3    3    0    0  0.10476789388E+03  0.12904421203E+02 -0.83044637178E+02  0.13431026558E+03  0.00000000000E+00 0.  1.
         12    1    3    3    0    0  0.22309156643E+03  0.14267301062E+03 -0.14362325944E+03  0.30125251139E+03  0.00000000000E+00 0. -1.
        -11    1    5    5    0    0 -0.56987297757E+01  0.10588737480E+02 -0.78831765385E+01  0.14378503219E+02  0.00000000000E+00 0.  1.
         12    1    5    5    0    0 -0.87496003647E+02 -0.11241991146E+03  0.10154559454E+03  0.17494369070E+03  0.00000000000E+00 0. -1.
          5    1    4    4  501    0 -0.50104716350E+02  0.68946429134E+02  0.33318517570E+03  0.34394555383E+03  0.47000000000E+01 0. -1.
         -5    1    4    4    0  501 -0.17735221119E+03  0.19743845030E+02  0.36909677880E+03  0.40999774188E+03  0.47000000000E+01 0. -1.
          1    1    1    2  502    0  0.42956143317E+02 -0.24395241800E+02  0.18252725582E+04  0.18259409273E+04  0.00000000000E+00 0. -1.
          1    1    1    2  503    0 -0.50163942665E+02 -0.11804129021E+03 -0.15678666890E+03  0.20256413029E+03  0.00000000000E+00 0. -1.
<mgrwt>
<rscale>  0 0.79640482E+02</rscale>
<asrwt>0</asrwt>
<pdfrwt beam="1">  1        2 0.41508056E+00 0.49399980E+02</pdfrwt>
<pdfrwt beam="2">  1        2 0.85997865E-01 0.12839289E+03</pdfrwt>
<totfact> 0.34554004E+01</totfact>
</mgrwt>
</event>
<event>
13    1  0.2101801E-008  0.9730397E+02  0.7546771E-02  0.1294592E+00
         -1   -1    0    0    0  501 -0.00000000000E+00  0.00000000000E+00  0.50393248027E+03  0.50393248027E+03  0.00000000000E+00 0.  1.
          2   -1    0    0  503    0  0.00000000000E+00 -0.00000000000E+00 -0.11430133649E+04  0.11430133649E+04  0.00000000000E+00 0. -1.
         24    2    1    2    0    0  0.17687829051E+02 -0.27099314348E+02  0.11355427444E+03  0.14552762453E+03  0.85067526848E+02 0.  0.
         25    2    1    2    0    0 -0.12347607532E+02  0.33045699340E+02 -0.30262884251E+03  0.32932187418E+03  0.12499679532E+03 0.  0.
         24    2    1    2    0    0  0.88083250953E+01  0.80310935156E+02 -0.14576487533E+03  0.18522581128E+03  0.80831735011E+02 0.  0.
        -11    1    5    5    0    0 -0.38848512392E+01  0.88606178222E+02 -0.85900262378E+02  0.12347065224E+03  0.00000000000E+00 0.  1.
         12    1    5    5    0    0  0.12693176334E+02 -0.82952430663E+01 -0.59864612955E+02  0.61755159034E+02  0.00000000000E+00 0. -1.
        -13    1    3    3    0    0 -0.88996219730E+01  0.27972452685E+02  0.44236578616E+02  0.53089888568E+02  0.00000000000E+00 0.  1.
         14    1    3    3    0    0  0.26587451024E+02 -0.55071767033E+02  0.69317695823E+02  0.92437735965E+02  0.00000000000E+00 0. -1.
          5    1    4    4  502    0 -0.60074645252E+02  0.31476231130E+02 -0.98859665340E+02  0.11997932972E+03  0.47000000000E+01 0.  1.
         -5    1    4    4    0  502  0.47727037720E+02  0.15694682099E+01 -0.20376917717E+03  0.20934254446E+03  0.47000000000E+01 0.  1.
          1    1    1    2  503    0  0.73316517671E+02 -0.65720239112E+02 -0.63578783951E+03  0.64336664389E+03  0.00000000000E+00 0. -1.
         -2    1    1    2    0  501 -0.87465064286E+02 -0.20537081036E+02  0.33154639825E+03  0.34350389133E+03  0.00000000000E+00 0.  1.
<mgrwt>
<rscale>  0 0.93499513E+02</rscale>
<asrwt>0</asrwt>
<pdfrwt beam="2">  1        2 0.16809020E+00 0.97303971E+02</pdfrwt>
<pdfrwt beam="1">  1       -1 0.74107718E-01 0.89843804E+02</pdfrwt>
<totfact> 0.55531173E+01</totfact>
</mgrwt>
</event>
<event>
13    1  0.2101801E-008  0.7080358E+02  0.7546771E-02  0.1477663E+00
         -1   -1    0    0    0  501 -0.00000000000E+00  0.00000000000E+00  0.85351116964E+02  0.85351116964E+02  0.00000000000E+00 0.  1.
          2   -1    0    0  503    0  0.00000000000E+00 -0.00000000000E+00 -0.20590918805E+04  0.20590918805E+04  0.00000000000E+00 0. -1.
         24    2    1    2    0    0 -0.35003090451E+01  0.61825636755E+01 -0.48542522080E+02  0.93789281262E+02  0.79934827033E+02 0.  0.
         25    2    1    2    0    0 -0.78471668287E+02 -0.35927837816E+01 -0.17374708767E+03  0.22799817965E+03  0.12499763449E+03 0.  0.
         24    2    1    2    0    0  0.36391774960E+02 -0.13710200063E+02 -0.20712096588E+03  0.22337599689E+03  0.74063557884E+02 0.  0.
        -11    1    5    5    0    0 -0.75392338860E+01 -0.32787948015E+02 -0.11095111999E+03  0.11593981460E+03  0.00000000000E+00 0.  1.
         12    1    5    5    0    0  0.43931008846E+02  0.19077747952E+02 -0.96169845894E+02  0.10743618229E+03  0.00000000000E+00 0. -1.
        -11    1    3    3    0    0 -0.15080360322E+02  0.39584499087E+02 -0.37978966965E+02  0.56892457911E+02  0.00000000000E+00 0.  1.
         12    1    3    3    0    0  0.11580051277E+02 -0.33401935411E+02 -0.10563555115E+02  0.36896823352E+02  0.00000000000E+00 0. -1.
          5    1    4    4  502    0 -0.85392225041E+02 -0.50855887919E+02 -0.12170289395E+03  0.15719999310E+03  0.47000000000E+01 0.  1.
         -5    1    4    4    0  502  0.69205567541E+01  0.47263104137E+02 -0.52044193720E+02  0.70798186548E+02  0.47000000000E+01 0.  1.
          1    1    1    2  503    0  0.71156171901E+02 -0.11116317664E+00 -0.15636803724E+04  0.15652985403E+04  0.00000000000E+00 0. -1.
         -2    1    1    2    0  501 -0.25575969529E+02  0.11231583346E+02  0.19350184479E+02  0.33980999414E+02  0.00000000000E+00 0.  1.
<mgrwt>
<rscale>  0 0.44472345E+02</rscale>
<asrwt>0</asrwt>
<pdfrwt beam="2">  1        2 0.30280762E+00 0.70803575E+02</pdfrwt>
<pdfrwt beam="1">  1       -1 0.12551635E-01 0.27933469E+02</pdfrwt>
<totfact> 0.37733751E+02</totfact>
</mgrwt>
</event>
<event>
13    1  0.2101801E-008  0.2053498E+03  0.7546771E-02  0.1186530E+00
          2   -1    0    0  502    0  0.00000000000E+00  0.00000000000E+00  0.72671548373E+03  0.72671548373E+03  0.00000000000E+00 0. -1.
          2   -1    0    0  503    0 -0.00000000000E+00 -0.00000000000E+00 -0.23008311127E+04  0.23008311127E+04  0.00000000000E+00 0. -1.
         24    2    1    2    0    0 -0.75804889070E+02  0.60731709995E+02 -0.73810205934E+02  0.14602442634E+03  0.80252506384E+02 0.  0.
         25    2    1    2    0    0  0.21597993901E+02  0.11255868100E+03 -0.74068880572E+02  0.18505870583E+03  0.12499838209E+03 0.  0.
         24    2    1    2    0    0 -0.14279384614E+03 -0.27012163078E+02 -0.38581468628E+03  0.42147985498E+03  0.87593130765E+02 0.  0.
        -11    1    5    5    0    0 -0.14792032985E+03 -0.60306776184E+01 -0.33971347752E+03  0.37056988526E+03  0.00000000000E+00 0.  1.
         12    1    5    5    0    0  0.51264837175E+01 -0.20981485459E+02 -0.46101208766E+02  0.50909969722E+02  0.00000000000E+00 0. -1.
        -13    1    3    3    0    0  0.13771683034E+02 -0.44569100568E+01 -0.37793612612E+01  0.14960176215E+02  0.00000000000E+00 0.  1.
         14    1    3    3    0    0 -0.89576572104E+02  0.65188620051E+02 -0.70030844673E+02  0.13106425012E+03  0.00000000000E+00 0. -1.
          5    1    4    4  501    0  0.73374880846E+02  0.77515488669E+02 -0.48898253253E+02  0.11749746080E+03  0.47000000000E+01 0. -1.
         -5    1    4    4    0  501 -0.51776886944E+02  0.35043192326E+02 -0.25170627320E+02  0.67561245028E+02  0.47000000000E+01 0. -1.
          1    1    1    2  502    0 -0.37759066321E+02 -0.12976731589E+03  0.60139085433E+03  0.61638970062E+03  0.00000000000E+00 0. -1.
          1    1    1    2  503    0  0.23475980763E+03 -0.16510912018E+02 -0.16418127105E+04  0.16585939087E+04  0.00000000000E+00 0. -1.
<mgrwt>
<rscale>  0 0.16193396E+03</rscale>
<asrwt>0</asrwt>
<pdfrwt beam="1">  1        2 0.10686992E+00 0.12769723E+03</pdfrwt>
<pdfrwt beam="2">  1        2 0.33835752E+00 0.20534984E+03</pdfrwt>
<totfact> 0.40695778E+01</totfact>
</mgrwt>
</event>
<event>
13    1  0.2101801E-008  0.1167761E+03  0.7546771E-02  0.1337676E+00
          2   -1    0    0  502    0  0.00000000000E+00  0.00000000000E+00  0.34009122671E+03  0.34009122671E+03  0.00000000000E+00 0. -1.
          2   -1    0    0  503    0 -0.00000000000E+00 -0.00000000000E+00 -0.16414833624E+04  0.16414833624E+04  0.00000000000E+00 0. -1.
         24    2    1    2    0    0  0.15298925816E+02  0.46838895200E+02 -0.88109092437E+03  0.88564328973E+03  0.74932505619E+02 0.  0.
         25    2    1    2    0    0 -0.68528006201E+02  0.60473069387E+02 -0.66099365542E+02  0.16836594746E+03  0.12499954554E+03 0.  0.
         24    2    1    2    0    0 -0.34912602999E+02  0.20331858350E+02  0.23886990186E+02  0.93179450612E+02  0.80495635931E+02 0.  0.
        -11    1    5    5    0    0 -0.39106688079E+02 -0.19316771312E+02 -0.50594485932E+01  0.43909779395E+02  0.00000000000E+00 0.  1.
         12    1    5    5    0    0  0.41940850803E+01  0.39648629663E+02  0.28946438779E+02  0.49269671217E+02  0.00000000000E+00 0. -1.
        -13    1    3    3    0    0  0.42320680997E+02  0.30724192722E+02 -0.69005807164E+03  0.69203696310E+03  0.00000000000E+00 0.  1.
         14    1    3    3    0    0 -0.27021755180E+02  0.16114702479E+02 -0.19103285273E+03  0.19360632663E+03  0.00000000000E+00 0. -1.
          5    1    4    4  501    0 -0.87155253221E+02  0.58503774098E+02 -0.89500043737E+02  0.13802564101E+03  0.47000000000E+01 0.  1.
         -5    1    4    4    0  501  0.18627247020E+02  0.19692952893E+01  0.23400678196E+02  0.30340306450E+02  0.47000000000E+01 0.  1.
          1    1    1    2  502    0  0.12925373274E+03 -0.15752030428E+03  0.18126988734E+03  0.27272320353E+03  0.00000000000E+00 0. -1.
          1    1    1    2  503    0 -0.41112049354E+02  0.29876481346E+02 -0.55935872333E+03  0.56166269780E+03  0.00000000000E+00 0. -1.
<mgrwt>
<rscale>  0 0.77037101E+02</rscale>
<asrwt>0</asrwt>
<pdfrwt beam="1">  1        2 0.50013416E-01 0.11677613E+03</pdfrwt>
<pdfrwt beam="2">  1        2 0.24139461E+00 0.50821302E+02</pdfrwt>
<totfact> 0.22479433E+02</totfact>
</mgrwt>
</event>
<event>
13    1  0.2101801E-008  0.1152987E+03  0.7546771E-02  0.1412418E+00
          2   -1    0    0  503    0  0.00000000000E+00  0.00000000000E+00  0.24642264564E+04  0.24642264564E+04  0.00000000000E+00 0. -1.
          2   -1    0    0  502    0 -0.00000000000E+00 -0.00000000000E+00 -0.16577902352E+04  0.16577902352E+04  0.00000000000E+00 0. -1.
         24    2    1    2    0    0 -0.25514058726E+03  0.10444774652E+03 -0.11406817563E+03  0.30532145172E+03  0.64835092077E+02 0.  0.
         25    2    1    2    0    0 -0.85951550020E+03  0.28928297078E+03  0.54749975697E+03  0.10666921523E+04  0.12499852637E+03 0.  0.
         24    2    1    2    0    0  0.11395738127E+04 -0.49796119531E+03  0.69489721280E+03  0.14267928878E+04  0.79132683157E+02 0.  0.
        -11    1    3    3    0    0 -0.10396467896E+03  0.24112396388E+02 -0.15687595222E+02  0.10787104698E+03  0.00000000000E+00 0.  1.
         12    1    3    3    0    0 -0.15117590830E+03  0.80335350133E+02 -0.98380580412E+02  0.19745040474E+03  0.00000000000E+00 0. -1.
        -13    1    5    5    0    0  0.61295112749E+03 -0.24163930123E+03  0.33191573356E+03  0.73774432616E+03  0.00000000000E+00 0.  1.
         14    1    5    5    0    0  0.52662268525E+03 -0.25632189408E+03  0.36298147924E+03  0.68904856162E+03  0.00000000000E+00 0. -1.
          5    1    4    4  501    0 -0.84034271007E+03  0.30022479088E+03  0.53930414706E+03  0.10426801276E+04  0.47000000000E+01 0. -1.
         -5    1    4    4    0  501 -0.19172790131E+02 -0.10941820095E+02  0.81956099068E+01  0.24012024699E+02  0.47000000000E+01 0. -1.
          1    1    1    2  502    0  0.61991252581E+00  0.11532012068E+03 -0.81811721899E+03  0.82620511892E+03  0.00000000000E+00 0. -1.
          1    1    1    2  503    0 -0.25537637797E+02 -0.11089642677E+02  0.49622464599E+03  0.49700508087E+03  0.00000000000E+00 0. -1.
<mgrwt>
<rscale>  0 0.56657688E+02</rscale>
<asrwt>0</asrwt>
<pdfrwt beam="1">  1        2 0.36238624E+00 0.27841536E+02</pdfrwt>
<pdfrwt beam="2">  1        2 0.24379268E+00 0.11529872E+03</pdfrwt>
<totfact> 0.13409998E+01</totfact>
</mgrwt>
</event>
<event>
13    1  0.2101801E-008  0.9266365E+02  0.7546771E-02  0.1374931E+00
          2   -1    0    0  503    0  0.00000000000E+00  0.00000000000E+00  0.34281204632E+04  0.34281204632E+04  0.00000000000E+00 0. -1.
          2   -1    0    0  502    0 -0.00000000000E+00 -0.00000000000E+00 -0.62239662210E+03  0.62239662210E+03  0.00000000000E+00 0. -1.
         24    2    1    2    0    0 -0.17482347441E+03 -0.19551237929E+03 -0.16542771843E+03  0.32036776724E+03  0.80503655808E+02 0.  0.
         25    2    1    2    0    0  0.24626634814E+03  0.58692520090E+02  0.12501235632E+04  0.12816113440E+04  0.12500714963E+03 0.  0.
         24    2    1    2    0    0 -0.52956227067E+01  0.25893422489E+03 -0.60902385401E+02  0.27760236750E+03  0.79240125281E+02 0.  0.
        -13    1    5    5    0    0  0.58044167537E+01  0.12745202184E+02 -0.24871286476E+02  0.28543165969E+02  0.00000000000E+00 0.  1.
         14    1    5    5    0    0 -0.11100039460E+02  0.24618902271E+03 -0.36031098925E+02  0.24905920153E+03  0.00000000000E+00 0. -1.
        -13    1    3    3    0    0 -0.48891810281E+02 -0.35857453817E+02 -0.78586380889E+02  0.99257167842E+02  0.00000000000E+00 0.  1.
         14    1    3    3    0    0 -0.12593166413E+03 -0.15965492548E+03 -0.86841337538E+02  0.22111059940E+03  0.00000000000E+00 0. -1.
          5    1    4    4  501    0  0.20830742030E+03  0.91650959534E+02  0.92530253376E+03  0.95288968340E+03  0.47000000000E+01 0. -1.
         -5    1    4    4    0  501  0.37958927844E+02 -0.32958439444E+02  0.32482102947E+03  0.32872166056E+03  0.47000000000E+01 0. -1.
          1    1    1    2  502    0 -0.46894325989E+02 -0.79517316953E+02 -0.18325530430E+03  0.20519402540E+03  0.00000000000E+00 0. -1.
          1    1    1    2  503    0 -0.19252925035E+02 -0.42597048737E+02  0.19651856859E+04  0.19657415812E+04  0.00000000000E+00 0. -1.
<mgrwt>
<rscale>  0 0.65815273E+02</rscale>
<asrwt>0</asrwt>
<pdfrwt beam="1">  1        2 0.50413535E+00 0.46745948E+02</pdfrwt>
<pdfrwt beam="2">  1        2 0.91528917E-01 0.92663649E+02</pdfrwt>
<totfact> 0.15668105E+01</totfact>
</mgrwt>
</event>
<event>
13    1  0.2101801E-008  0.8225863E+02  0.7546771E-02  0.1437106E+00
          2   -1    0    0  503    0  0.00000000000E+00  0.00000000000E+00  0.40495044043E+04  0.40495044043E+04  0.00000000000E+00 0. -1.
          2   -1    0    0  502    0 -0.00000000000E+00 -0.00000000000E+00 -0.26515247203E+04  0.26515247203E+04  0.00000000000E+00 0. -1.
         24    2    1    2    0    0 -0.83847750842E+03  0.13364668642E+03 -0.18794441168E+03  0.87316783502E+03  0.78695599126E+02 0.  0.
         25    2    1    2    0    0  0.10046600594E+04  0.10543889107E+04  0.16727212974E+04  0.22214172126E+04  0.12498033342E+03 0.  0.
         24    2    1    2    0    0 -0.21858703734E+03 -0.12770230426E+04  0.84105726888E+03  0.15457470506E+04  0.58210573219E+02 0.  0.
        -13    1    5    5    0    0 -0.84985407083E+02 -0.59050385675E+03  0.41617206052E+03  0.72740395120E+03  0.00000000000E+00 0.  1.
         14    1    5    5    0    0 -0.13360163026E+03 -0.68651918582E+03  0.42488520836E+03  0.81834309943E+03  0.00000000000E+00 0. -1.
        -13    1    3    3    0    0 -0.74527023509E+03  0.12268585354E+03 -0.19168093899E+03  0.77924394405E+03  0.00000000000E+00 0.  1.
         14    1    3    3    0    0 -0.93207273330E+02  0.10960832873E+02  0.37365273076E+01  0.93923890972E+02  0.00000000000E+00 0. -1.
          5    1    4    4  501    0  0.69590120993E+03  0.81034122596E+03  0.12228196817E+04  0.16236506584E+04  0.47000000000E+01 0.  1.
         -5    1    4    4    0  501  0.30875884951E+03  0.24404768472E+03  0.44990161566E+03  0.59776655422E+03  0.47000000000E+01 0.  1.
          1    1    1    2  502    0 -0.65184350879E+01  0.31653299338E+02 -0.14911164850E+04  0.14914666584E+04  0.00000000000E+00 0. -1.
          1    1    1    2  503    0  0.58922921407E+02  0.57334146129E+02  0.56326201440E+03  0.56923036799E+03  0.00000000000E+00 0. -1.
<mgrwt>
<rscale>  0 0.51559615E+02</rscale>
<asrwt>0</asrwt>
<pdfrwt beam="1">  1        2 0.59551536E+00 0.82258627E+02</pdfrwt>
<pdfrwt beam="2">  1        2 0.38993010E+00 0.32317508E+02</pdfrwt>
<totfact> 0.57563987E-01</totfact>
</mgrwt>
</event>
<event>
13    1  0.2101801E-008  0.1164793E+03  0.7546771E-02  0.1308719E+00
          2   -1    0    0  503    0  0.00000000000E+00  0.00000000000E+00  0.32381843767E+04  0.32381843767E+04  0.00000000000E+00 0. -1.
          2   -1    0    0  502    0 -0.00000000000E+00 -0.00000000000E+00 -0.90237524143E+03  0.90237524143E+03  0.00000000000E+00 0. -1.
         24    2    1    2    0    0  0.37505063741E+01  0.74255879844E+01 -0.12670040410E+03  0.15043805903E+03  0.80680924327E+02 0.  0.
         25    2    1    2    0    0  0.27630025612E+02  0.15854283700E+03  0.64391107441E+03  0.67538550550E+03  0.12499943926E+03 0.  0.
         24    2    1    2    0    0  0.25246281629E+02 -0.17518295449E+02  0.27902787501E+01  0.87186346381E+02  0.81543901846E+02 0.  0.
        -11    1    3    3    0    0  0.40952419683E+02 -0.36883906979E+01 -0.52422289566E+02  0.66624329994E+02  0.00000000000E+00 0.  1.
         12    1    3    3    0    0 -0.37201913308E+02  0.11113978682E+02 -0.74278114536E+02  0.83813729037E+02  0.00000000000E+00 0. -1.
        -13    1    5    5    0    0 -0.28074090573E+02 -0.16533764523E+02 -0.60245482451E+01  0.33133293111E+02  0.00000000000E+00 0.  1.
         14    1    5    5    0    0  0.53320372202E+02 -0.98453092607E+00  0.88148269952E+01  0.54053053271E+02  0.00000000000E+00 0. -1.
          5    1    4    4  501    0  0.10860405704E+02 -0.19433900624E+02  0.10979974293E+03  0.11213250400E+03  0.47000000000E+01 0.  1.
         -5    1    4    4    0  501  0.16769619908E+02  0.17797673763E+03  0.53411133148E+03  0.56325300151E+03  0.47000000000E+01 0.  1.
          1    1    1    2  502    0  0.40136252419E+01 -0.17427819331E+03 -0.69466866661E+03  0.71620775912E+03  0.00000000000E+00 0. -1.
          1    1    1    2  503    0 -0.60640438857E+02  0.25828063777E+02  0.25104768528E+04  0.25113419481E+04  0.00000000000E+00 0. -1.
<mgrwt>
<rscale>  0 0.87620477E+02</rscale>
<asrwt>0</asrwt>
<pdfrwt beam="1">  1        2 0.47620358E+00 0.65911696E+02</pdfrwt>
<pdfrwt beam="2">  1        2 0.13270224E+00 0.11647930E+03</pdfrwt>
<totfact> 0.11965775E+01</totfact>
</mgrwt>
</event>
<event>
13    1  0.2101801E-008  0.1438275E+03  0.7546771E-02  0.1324741E+00
          2   -1    0    0  502    0  0.00000000000E+00  0.00000000000E+00  0.12879704307E+04  0.12879704307E+04  0.00000000000E+00 0. -1.
          2   -1    0    0  503    0 -0.00000000000E+00 -0.00000000000E+00 -0.13033935030E+04  0.13033935030E+04  0.00000000000E+00 0. -1.
         24    2    1    2    0    0 -0.38039758901E+02  0.21820967670E+02 -0.56560054102E+03  0.57464464087E+03  0.91593195110E+02 0.  0.
         25    2    1    2    0    0 -0.66066752293E+02 -0.17426260857E+03 -0.18750847671E+03  0.29243273815E+03  0.12500082001E+03 0.  0.
         24    2    1    2    0    0  0.89608695942E+02 -0.26834217294E+02  0.38341535142E+03  0.40289389465E+03  0.81033110725E+02 0.  0.
        -11    1    3    3    0    0  0.28402869441E+02  0.18047284039E+02 -0.14823936683E+03  0.15201097767E+03  0.00000000000E+00 0.  1.
         12    1    3    3    0    0 -0.66442628342E+02  0.37736836316E+01 -0.41736117419E+03  0.42263366320E+03  0.00000000000E+00 0. -1.
        -11    1    5    5    0    0  0.16293960969E+02 -0.36493679332E+02  0.21896262499E+03  0.22258012700E+03  0.00000000000E+00 0.  1.
         12    1    5    5    0    0  0.73314734974E+02  0.96594620383E+01  0.16445272643E+03  0.18031376764E+03  0.00000000000E+00 0. -1.
          5    1    4    4  501    0 -0.87114508272E+02 -0.18171037685E+03 -0.16962898341E+03  0.26344578308E+03  0.47000000000E+01 0. -1.
         -5    1    4    4    0  501  0.21047755979E+02  0.74477682819E+01 -0.17879493299E+02  0.28986955079E+02  0.47000000000E+01 0. -1.
          1    1    1    2  502    0  0.40995903245E+02  0.14139860023E+03  0.83023587899E+03  0.84318790491E+03  0.00000000000E+00 0. -1.
          1    1    1    2  503    0 -0.26498087992E+02  0.37877257964E+02 -0.47596528497E+03  0.47820475514E+03  0.00000000000E+00 0. -1.
<mgrwt>
<rscale>  0 0.81538702E+02</rscale>
<asrwt>0</asrwt>
<pdfrwt beam="1">  1        2 0.18940742E+00 0.14382754E+03</pdfrwt>
<pdfrwt beam="2">  1        2 0.19167551E+00 0.46225916E+02</pdfrwt>
<totfact> 0.66138853E+01</totfact>
</mgrwt>
</event>
<event>
13    1  0.2101801E-008  0.4136062E+02  0.7546771E-02  0.1528932E+00
          2   -1    0    0  503    0  0.00000000000E+00  0.00000000000E+00  0.13685042201E+04  0.13685042201E+04  0.00000000000E+00 0. -1.
          2   -1    0    0  502    0 -0.00000000000E+00 -0.00000000000E+00 -0.24328142425E+04  0.24328142425E+04  0.00000000000E+00 0. -1.
         24    2    1    2    0    0 -0.14658393898E+02  0.78930574651E+02 -0.49744926076E+03  0.51031886421E+03  0.80775441842E+02 0.  0.
         25    2    1    2    0    0  0.12136848316E+01 -0.15822567502E+03  0.17665997214E+03  0.26808232200E+03  0.12499019299E+03 0.  0.
         24    2    1    2    0    0  0.33033535964E+02  0.52711139807E+02  0.88782214499E+01  0.10148055235E+03  0.79685638172E+02 0.  0.
        -11    1    5    5    0    0 -0.55361096975E+01  0.60982557348E+02  0.92575643358E+00  0.61240328512E+02  0.00000000000E+00 0.  1.
         12    1    5    5    0    0  0.38569645662E+02 -0.82714175407E+01  0.79524650163E+01  0.40240223837E+02  0.00000000000E+00 0. -1.
        -13    1    3    3    0    0 -0.14399027127E+02  0.14416663065E+02 -0.33366398891E+03  0.33428555106E+03  0.00000000000E+00 0.  1.
         14    1    3    3    0    0 -0.25936677085E+00  0.64513911587E+02 -0.16378527186E+03  0.17603331315E+03  0.00000000000E+00 0. -1.
          5    1    4    4  501    0  0.55668583528E+02 -0.34159567866E+02  0.48133086115E+02  0.81269620695E+02  0.47000000000E+01 0.  1.
         -5    1    4    4    0  501 -0.54454898697E+02 -0.12406610716E+03  0.12852688602E+03  0.18681270130E+03  0.47000000000E+01 0.  1.
          1    1    1    2  502    0 -0.30977968730E+02 -0.13192281500E+02 -0.18363688472E+04  0.18366774932E+04  0.00000000000E+00 0. -1.
          1    1    1    2  503    0  0.11389141831E+02  0.39776242065E+02  0.10839698921E+04  0.10847592308E+04  0.00000000000E+00 0. -1.
<mgrwt>
<rscale>  0 0.37317734E+02</rscale>
<asrwt>0</asrwt>
<pdfrwt beam="1">  1        2 0.20125062E+00 0.41360619E+02</pdfrwt>
<pdfrwt beam="2">  1        2 0.35776680E+00 0.33670029E+02</pdfrwt>
<totfact> 0.20238066E+01</totfact>
</mgrwt>
</event>
<event>
13    1  0.2101801E-008  0.8631626E+02  0.7546771E-02  0.1320400E+00
          2   -1    0    0  503    0  0.00000000000E+00  0.00000000000E+00  0.82627073572E+03  0.82627073572E+03  0.00000000000E+00 0. -1.
         -1   -1    0    0    0  501 -0.00000000000E+00 -0.00000000000E+00 -0.16903010280E+04  0.16903010280E+04  0.00000000000E+00 0.  1.
         24    2    1    2    0    0  0.77487105564E+01 -0.26937915556E+02 -0.54231713579E+02  0.10281929667E+03  0.82734727900E+02 0.  0.
         25    2    1    2    0    0  0.40593216756E+02 -0.13581055828E+03  0.23357356253E+03  0.30045529672E+03  0.12499783688E+03 0.  0.
         24    2    1    2    0    0  0.26881069006E+02  0.83837367511E+02 -0.63319593877E+02  0.13431935825E+03  0.79252905127E+02 0.  0.
        -11    1    5    5    0    0 -0.80596078543E+01 -0.11928139107E+02 -0.17205841122E+02  0.22433875056E+02  0.00000000000E+00 0.  1.
         12    1    5    5    0    0  0.34940676860E+02  0.95765506618E+02 -0.46113752754E+02  0.11188548320E+03  0.00000000000E+00 0. -1.
        -13    1    3    3    0    0 -0.12710139444E+02 -0.52619312207E+02 -0.38385887537E+02  0.66361253935E+02  0.00000000000E+00 0.  1.
         14    1    3    3    0    0  0.20458850001E+02  0.25681396651E+02 -0.15845826042E+02  0.36458042738E+02  0.00000000000E+00 0. -1.
          5    1    4    4  502    0  0.56456904847E+02 -0.12190324675E+03  0.24234460303E+03  0.27712953703E+03  0.47000000000E+01 0. -1.
         -5    1    4    4    0  502 -0.15863688092E+02 -0.13907311526E+02 -0.87710404984E+01  0.23325759691E+02  0.47000000000E+01 0. -1.
          1    1    1    2  503    0  0.44856790747E+01  0.86391796997E+02  0.49462282934E+03  0.50213086662E+03  0.00000000000E+00 0. -1.
         -2    1    1    2    0  501 -0.79708675393E+02 -0.74806906732E+01 -0.14746753767E+04  0.14768469454E+04  0.00000000000E+00 0.  1.
<mgrwt>
<rscale>  0 0.83128745E+02</rscale>
<asrwt>0</asrwt>
<pdfrwt beam="1">  1        2 0.12151040E+00 0.86316260E+02</pdfrwt>
<pdfrwt beam="2">  1       -1 0.24857368E+00 0.80058939E+02</pdfrwt>
<totfact> 0.39959046E+00</totfact>
</mgrwt>
</event>
<event>
13    1  0.2101801E-008  0.1546011E+03  0.7546771E-02  0.1327561E+00
          2   -1    0    0  502    0  0.00000000000E+00  0.00000000000E+00  0.19644261787E+04  0.19644261787E+04  0.00000000000E+00 0. -1.
          2   -1    0    0  503    0 -0.00000000000E+00 -0.00000000000E+00 -0.13118955821E+04  0.13118955821E+04  0.00000000000E+00 0. -1.
         24    2    1    2    0    0  0.16762146810E+03 -0.17286861286E+03 -0.27250794251E+03  0.37262691875E+03  0.81300233452E+02 0.  0.
         25    2    1    2    0    0 -0.25678357953E+03 -0.74833690214E+02  0.12317719926E+04  0.12666592138E+04  0.12500173732E+03 0.  0.
         24    2    1    2    0    0  0.16901876128E+02  0.82547222480E+02  0.62595873128E+02  0.13186464880E+03  0.79814315221E+02 0.  0.
        -13    1    3    3    0    0  0.15659914964E+02  0.74391220709E+01 -0.11131506499E+02  0.20603007324E+02  0.00000000000E+00 0.  1.
         14    1    3    3    0    0  0.15196155314E+03 -0.18030773493E+03 -0.26137643602E+03  0.35202391142E+03  0.00000000000E+00 0. -1.
        -13    1    5    5    0    0  0.29971422684E+02  0.73189604730E+02  0.76926494957E+02  0.11032991455E+03  0.00000000000E+00 0.  1.
         14    1    5    5    0    0 -0.13069546556E+02  0.93576177495E+01 -0.14330621829E+02  0.21534734248E+02  0.00000000000E+00 0. -1.
          5    1    4    4  501    0 -0.99112647308E+02 -0.54709260343E+02  0.76957706274E+03  0.77787361796E+03  0.47000000000E+01 0.  1.
         -5    1    4    4    0  501 -0.15767093222E+03 -0.20124429871E+02  0.46219492984E+03  0.48878559585E+03  0.47000000000E+01 0.  1.
          1    1    1    2  502    0  0.39307521449E+02  0.14638288629E+02  0.56079964432E+03  0.56236607455E+03  0.00000000000E+00 0. -1.
          1    1    1    2  503    0  0.32952713853E+02  0.15051679197E+03 -0.93012897096E+03  0.94280490486E+03  0.00000000000E+00 0. -1.
<mgrwt>
<rscale>  0 0.80527637E+02</rscale>
<asrwt>0</asrwt>
<pdfrwt beam="1">  1        2 0.28888620E+00 0.41944734E+02</pdfrwt>
<pdfrwt beam="2">  1        2 0.19292582E+00 0.15460106E+03</pdfrwt>
<totfact> 0.31548020E+01</totfact>
</mgrwt>
</event>
<event>
13    1  0.2101801E-008  0.3168862E+02  0.7546771E-02  0.1651392E+00
          2   -1    0    0  502    0  0.00000000000E+00  0.00000000000E+00  0.26302192669E+03  0.26302192669E+03  0.00000000000E+00 0. -1.
          4   -1    0    0  503    0 -0.00000000000E+00 -0.00000000000E+00 -0.13296063662E+04  0.13296063662E+04  0.00000000000E+00 0. -1.
         24    2    1    2    0    0  0.26843279123E+03 -0.83512794238E+02 -0.59994472135E+03  0.66739030978E+03  0.80284535905E+02 0.  0.
         25    2    1    2    0    0 -0.28611324983E+03  0.16964784259E+03 -0.77578530203E+02  0.36370985350E+03  0.12500098783E+03 0.  0.
         24    2    1    2    0    0 -0.20482920525E+02 -0.53390027342E+02 -0.32776074381E+02  0.10323525094E+03  0.79455653876E+02 0.  0.
        -11    1    5    5    0    0  0.22783853854E+02 -0.22202692749E+02 -0.38099306539E+02  0.49634874035E+02  0.00000000000E+00 0.  1.
         12    1    5    5    0    0 -0.43266774378E+02 -0.31187334594E+02  0.53232321582E+01  0.53600376909E+02  0.00000000000E+00 0. -1.
        -13    1    3    3    0    0  0.88352742945E+02 -0.52359086543E+02 -0.15043025138E+03  0.18214538605E+03  0.00000000000E+00 0.  1.
         14    1    3    3    0    0  0.18008004828E+03 -0.31153707695E+02 -0.44951446997E+03  0.48524492373E+03  0.00000000000E+00 0. -1.
          5    1    4    4  501    0 -0.11580390618E+03  0.12183446013E+03 -0.81161131226E+02  0.18671743246E+03  0.47000000000E+01 0.  1.
         -5    1    4    4    0  501 -0.17030934364E+03  0.47813382465E+02  0.35826010228E+01  0.17699242104E+03  0.47000000000E+01 0.  1.
          1    1    1    2  502    0  0.10053568616E+02 -0.18225225980E+02  0.48236640486E+02  0.52535764859E+02  0.00000000000E+00 0. -1.
          3    1    1    2  503    0  0.28109810507E+02 -0.14519795032E+02 -0.40452175407E+03  0.40575711381E+03  0.00000000000E+00 0. -1.
<mgrwt>
<rscale>  0 0.25682192E+02</rscale>
<asrwt>0</asrwt>
<pdfrwt beam="1">  1        2 0.38679696E-01 0.20814252E+02</pdfrwt>
<pdfrwt beam="2">  1        4 0.19553034E+00 0.31688623E+02</pdfrwt>
<totfact> 0.10336009E+01</totfact>
</mgrwt>
</event>
<event>
13    1  0.2101801E-008  0.2143396E+03  0.7546771E-02  0.1212489E+00
          4   -1    0    0  503    0 -0.00000000000E+00  0.00000000000E+00  0.20732076907E+04  0.20732076907E+04  0.00000000000E+00 0. -1.
          2   -1    0    0  502    0  0.00000000000E+00 -0.00000000000E+00 -0.11474529031E+04  0.11474529031E+04  0.00000000000E+00 0. -1.
         24    2    1    2    0    0  0.16845971922E+03  0.11592844512E+03  0.13525294803E+04  0.13705115466E+04  0.84544799152E+02 0.  0.
         25    2    1    2    0    0 -0.96355695074E+02  0.31923902988E+02 -0.49137983236E+03  0.51708893135E+03  0.12499307069E+03 0.  0.
         24    2    1    2    0    0  0.66990380864E+02 -0.27981271696E+02  0.42678464973E+01  0.11039347680E+03  0.83053251069E+02 0.  0.
        -13    1    3    3    0    0  0.61087606488E+02  0.29322016830E+01  0.51314990260E+03  0.51678149736E+03  0.00000000000E+00 0.  1.
         14    1    3    3    0    0  0.10737211273E+03  0.11299624344E+03  0.83937957767E+03  0.85373004928E+03  0.00000000000E+00 0. -1.
        -13    1    5    5    0    0  0.63103198336E+02 -0.54230130378E+02  0.80397277786E+01  0.83591613837E+02  0.00000000000E+00 0.  1.
         14    1    5    5    0    0  0.38871825278E+01  0.26248858682E+02 -0.37718812813E+01  0.26801862967E+02  0.00000000000E+00 0. -1.
          5    1    4    4  501    0 -0.32019316752E+02 -0.41573948198E+02 -0.93043844812E+02  0.10692463173E+03  0.47000000000E+01 0. -1.
         -5    1    4    4    0  501 -0.64336378322E+02  0.73497851185E+02 -0.39833598755E+03  0.41016429962E+03  0.47000000000E+01 0. -1.
          1    1    1    2  502    0  0.49843566597E+02 -0.77641426324E+02 -0.56271509255E+03  0.57022876778E+03  0.00000000000E+00 0. -1.
          3    1    1    2  503    0 -0.18893797160E+03 -0.42229650088E+02  0.62305238576E+03  0.65243787127E+03  0.00000000000E+00 0. -1.
<mgrwt>
<rscale>  0 0.14062624E+03</rscale>
<asrwt>0</asrwt>
<pdfrwt beam="2">  1        2 0.16874307E+00 0.92263602E+02</pdfrwt>
<pdfrwt beam="1">  1        4 0.30488349E+00 0.21433956E+03</pdfrwt>
<totfact> 0.44084217E-01</totfact>
</mgrwt>
</event>
<event>
13    1  0.2101801E-008  0.1363791E+03  0.7546771E-02  0.1332716E+00
          2   -1    0    0  502    0  0.00000000000E+00  0.00000000000E+00  0.12886420689E+04  0.12886420689E+04  0.00000000000E+00 0. -1.
          2   -1    0    0  503    0 -0.00000000000E+00 -0.00000000000E+00 -0.25381197923E+04  0.25381197923E+04  0.00000000000E+00 0. -1.
         24    2    1    2    0    0 -0.11359408353E+03 -0.34878310625E+01 -0.17551543372E+03  0.22485893508E+03  0.82704851339E+02 0.  0.
         25    2    1    2    0    0  0.68131268031E+02  0.11131388987E+03  0.32031596825E+03  0.36777717686E+03  0.12500032217E+03 0.  0.
         24    2    1    2    0    0  0.13192669956E+03  0.16680198201E+02 -0.36484469288E+03  0.39642853817E+03  0.79756209047E+02 0.  0.
        -11    1    3    3    0    0 -0.12372907647E+03  0.90605874816E+01 -0.14978278337E+03  0.19448871639E+03  0.00000000000E+00 0.  1.
         12    1    3    3    0    0  0.10134992933E+02 -0.12548418544E+02 -0.25732650344E+02  0.30370218693E+02  0.00000000000E+00 0. -1.
        -13    1    5    5    0    0 -0.21043189469E+00  0.19697114590E+02 -0.80365744885E+02  0.82744628561E+02  0.00000000000E+00 0.  1.
         14    1    5    5    0    0  0.13213713145E+03 -0.30169163887E+01 -0.28447894800E+03  0.31368390961E+03  0.00000000000E+00 0. -1.
          5    1    4    4  501    0  0.10368969650E+03  0.79234187720E+02  0.20807895480E+03  0.24565942094E+03  0.47000000000E+01 0.  1.
         -5    1    4    4    0  501 -0.35558428464E+02  0.32079702152E+02  0.11223701345E+03  0.12211775593E+03  0.47000000000E+01 0.  1.
          1    1    1    2  502    0 -0.45119462044E+02  0.53989323333E+01  0.90115571533E+03  0.90230069134E+03  0.00000000000E+00 0. -1.
          1    1    1    2  503    0 -0.41344422012E+02 -0.12990518934E+03 -0.19305892803E+04  0.19353965197E+04  0.00000000000E+00 0. -1.
<mgrwt>
<rscale>  0 0.78722602E+02</rscale>
<asrwt>0</asrwt>
<pdfrwt beam="1">  1        2 0.18950619E+00 0.45441328E+02</pdfrwt>
<pdfrwt beam="2">  1        2 0.37325291E+00 0.13637911E+03</pdfrwt>
<totfact> 0.16169348E+01</totfact>
</mgrwt>
</event>
<event>
13    1  0.2101801E-008  0.5816950E+02  0.7546771E-02  0.1519305E+00
         -3   -1    0    0    0  501 -0.00000000000E+00  0.00000000000E+00  0.17090118160E+04  0.17090118160E+04  0.00000000000E+00 0.  1.
          2   -1    0    0  503    0  0.00000000000E+00 -0.00000000000E+00 -0.15932427442E+04  0.15932427442E+04  0.00000000000E+00 0. -1.
         24    2    1    2    0    0 -0.14284711310E+03 -0.12732605183E+03  0.70798204239E+03  0.73775071790E+03  0.80126950580E+02 0.  0.
         25    2    1    2    0    0  0.37208171604E+03  0.44772853725E+03  0.11385322977E+03  0.60621275228E+03  0.12500278645E+03 0.  0.
         24    2    1    2    0    0 -0.25152908594E+03 -0.24297947004E+03 -0.64807226878E+03  0.74080313070E+03  0.80533899440E+02 0.  0.
        -11    1    3    3    0    0 -0.13587423532E+03 -0.10135510478E+03  0.49812664090E+03  0.52617945177E+03  0.00000000000E+00 0.  1.
         12    1    3    3    0    0 -0.69728777832E+01 -0.25970947046E+02  0.20985540150E+03  0.21157126613E+03  0.00000000000E+00 0. -1.
        -13    1    5    5    0    0 -0.16146757436E+03 -0.10386157953E+03 -0.31795282542E+03  0.37142025317E+03  0.00000000000E+00 0.  1.
         14    1    5    5    0    0 -0.90061511576E+02 -0.13911789051E+03 -0.33011944335E+03  0.36938287753E+03  0.00000000000E+00 0. -1.
          5    1    4    4  502    0  0.29605895706E+03  0.34123281674E+03  0.13941484599E+03  0.47281003644E+03  0.47000000000E+01 0. -1.
         -5    1    4    4    0  502  0.76022758977E+02  0.10649572052E+03 -0.25561616224E+02  0.13340271584E+03  0.47000000000E+01 0. -1.
          1    1    1    2  503    0  0.16361240664E+02 -0.19589313686E+02 -0.63602684311E+03  0.63653874710E+03  0.00000000000E+00 0. -1.
         -4    1    1    2    0  501  0.59332423329E+01 -0.57833701697E+02  0.57803291152E+03  0.58094921225E+03  0.00000000000E+00 0.  1.
<mgrwt>
<rscale>  0 0.38531403E+02</rscale>
<asrwt>0</asrwt>
<pdfrwt beam="2">  1        2 0.23430040E+00 0.25523154E+02</pdfrwt>
<pdfrwt beam="1">  1       -3 0.25132527E+00 0.58169496E+02</pdfrwt>
<totfact> 0.87898383E-01</totfact>
</mgrwt>
</event>
<event>
13    1  0.2101801E-008  0.1586681E+03  0.7546771E-02  0.1338825E+00
          2   -1    0    0  502    0  0.00000000000E+00  0.00000000000E+00  0.26020480669E+04  0.26020480669E+04  0.00000000000E+00 0. -1.
          2   -1    0    0  503    0 -0.00000000000E+00 -0.00000000000E+00 -0.33259764722E+04  0.33259764722E+04  0.00000000000E+00 0. -1.
         24    2    1    2    0    0  0.81309205165E+01  0.14172602235E+03 -0.32500854578E+03  0.36829432750E+03  0.99286351318E+02 0.  0.
         25    2    1    2    0    0  0.13099829483E+03 -0.14468939825E+03  0.71291121812E+03  0.74964095460E+03  0.12499432257E+03 0.  0.
         24    2    1    2    0    0  0.27812123015E+02 -0.94333019661E+02  0.27938344527E+03  0.30717555093E+03  0.81421599185E+02 0.  0.
        -13    1    5    5    0    0  0.30197449036E+02 -0.10624200555E+03  0.27034152589E+03  0.29203388553E+03  0.00000000000E+00 0.  1.
         14    1    5    5    0    0 -0.23853260214E+01  0.11908985893E+02  0.90419193749E+01  0.15141665404E+02  0.00000000000E+00 0. -1.
        -13    1    3    3    0    0  0.33577234224E+02  0.74434620171E+01 -0.44312075068E+02  0.56092742683E+02  0.00000000000E+00 0.  1.
         14    1    3    3    0    0 -0.25446313708E+02  0.13428256033E+03 -0.28069647071E+03  0.31220158481E+03  0.00000000000E+00 0. -1.
          5    1    4    4  501    0 -0.19077038293E+02 -0.49061554104E+02  0.13679460191E+03  0.14664863652E+03  0.47000000000E+01 0. -1.
         -5    1    4    4    0  501  0.15007533313E+03 -0.95627844149E+02  0.57611661620E+03  0.60299231807E+03  0.47000000000E+01 0. -1.
          1    1    1    2  502    0 -0.24010191855E+02  0.28193615289E+02  0.15534906682E+04  0.15539319887E+04  0.00000000000E+00 0. -1.
          1    1    1    2  503    0 -0.14293114651E+03  0.69102780277E+02 -0.29447051911E+04  0.29489817173E+04  0.00000000000E+00 0. -1.
<mgrwt>
<rscale>  0 0.76653760E+02</rscale>
<asrwt>0</asrwt>
<pdfrwt beam="1">  1        2 0.38265413E+00 0.37032003E+02</pdfrwt>
<pdfrwt beam="2">  1        2 0.48911418E+00 0.15866814E+03</pdfrwt>
<totfact> 0.14814729E+00</totfact>
</mgrwt>
</event>
<event>
13    1  0.2101801E-008  0.1071012E+03  0.7546771E-02  0.1459108E+00
          2   -1    0    0  502    0  0.00000000000E+00  0.00000000000E+00  0.12275354499E+04  0.12275354499E+04  0.00000000000E+00 0. -1.
          2   -1    0    0  503    0 -0.00000000000E+00 -0.00000000000E+00 -0.10445714461E+04  0.10445714461E+04  0.00000000000E+00 0. -1.
         24    2    1    2    0    0 -0.96054987854E+01  0.36313127330E+02  0.88994643434E+01  0.89699433764E+02  0.80968383512E+02 0.  0.
         25    2    1    2    0    0  0.36813937395E+02 -0.82313564414E+02  0.33701883358E+03  0.37059262017E+03  0.12500562811E+03 0.  0.
         24    2    1    2    0    0 -0.10778777723E+03  0.15626474800E+02  0.19283613249E+03  0.23575567129E+03  0.80824321300E+02 0.  0.
        -11    1    3    3    0    0  0.22112314540E+02  0.10639448706E+02 -0.26183696913E+02  0.35885070811E+02  0.00000000000E+00 0.  1.
         12    1    3    3    0    0 -0.31717813325E+02  0.25673678624E+02  0.35083161257E+02  0.53814362953E+02  0.00000000000E+00 0. -1.
        -13    1    5    5    0    0 -0.28917004106E+02  0.41871058744E+02  0.56133497886E+02  0.75765086100E+02  0.00000000000E+00 0.  1.
         14    1    5    5    0    0 -0.78870773121E+02 -0.26244583944E+02  0.13670263461E+03  0.15999058518E+03  0.00000000000E+00 0. -1.
          5    1    4    4  501    0  0.12693748195E+02  0.30939210859E+02  0.11885000483E+03  0.12355476381E+03  0.47000000000E+01 0.  1.
         -5    1    4    4    0  501  0.24120189199E+02 -0.11325277527E+03  0.21816882875E+03  0.24703785636E+03  0.47000000000E+01 0.  1.
          1    1    1    2  502    0 -0.20071669873E+02 -0.64995233984E+01  0.60697662361E+03  0.60734317922E+03  0.00000000000E+00 0. -1.
          1    1    1    2  503    0  0.10065100849E+03  0.36873485682E+02 -0.96276705016E+03  0.96871599157E+03  0.00000000000E+00 0. -1.
<mgrwt>
<rscale>  0 0.47535205E+02</rscale>
<asrwt>0</asrwt>
<pdfrwt beam="1">  1        2 0.18051992E+00 0.21097766E+02</pdfrwt>
<pdfrwt beam="2">  1        2 0.15361345E+00 0.10710118E+03</pdfrwt>
<totfact> 0.10494908E+02</totfact>
</mgrwt>
</event>
<event>
13    1  0.2101801E-008  0.3915862E+03  0.7546771E-02  0.1183070E+00
          2   -1    0    0  503    0  0.00000000000E+00  0.00000000000E+00  0.13012636257E+04  0.13012636257E+04  0.00000000000E+00 0. -1.
          2   -1    0    0  502    0 -0.00000000000E+00 -0.00000000000E+00 -0.33059557061E+04  0.33059557061E+04  0.00000000000E+00 0. -1.
         24    2    1    2    0    0 -0.11615503712E+03  0.26255571218E+02 -0.11139372717E+04  0.11231819386E+04  0.80623038026E+02 0.  0.
         25    2    1    2    0    0 -0.21350745587E+03 -0.23836091179E+03  0.42969553037E+03  0.55015006830E+03  0.12500196336E+03 0.  0.
         24    2    1    2    0    0 -0.19364858808E+02 -0.31918640640E+02 -0.52157678275E+02  0.10382474732E+03  0.81641639965E+02 0.  0.
        -11    1    3    3    0    0 -0.58842819193E+02  0.44612970423E+02 -0.40357156520E+03  0.41027162069E+03  0.00000000000E+00 0.  1.
         12    1    3    3    0    0 -0.57312217929E+02 -0.18357399205E+02 -0.71036570648E+03  0.71291031790E+03  0.00000000000E+00 0. -1.
        -13    1    5    5    0    0  0.30977913515E+02 -0.21354080116E+02 -0.28529667491E+02  0.47218320497E+02  0.00000000000E+00 0.  1.
         14    1    5    5    0    0 -0.50342772323E+02 -0.10564560524E+02 -0.23628010784E+02  0.56606426824E+02  0.00000000000E+00 0. -1.
          5    1    4    4  501    0  0.67048151553E+01 -0.58165963046E+02  0.81306962806E+02  0.10030526409E+03  0.47000000000E+01 0. -1.
         -5    1    4    4    0  501 -0.22021227102E+03 -0.18019494875E+03  0.34838856757E+03  0.44984480421E+03  0.47000000000E+01 0. -1.
          1    1    1    2  502    0 -0.19854100777E+02 -0.66706463115E+02 -0.19740303986E+04  0.19752569332E+04  0.00000000000E+00 0. -1.
          1    1    1    2  503    0  0.36888145257E+03  0.31073044433E+03  0.70573773780E+03  0.85480564437E+03  0.00000000000E+00 0. -1.
<mgrwt>
<rscale>  0 0.16508717E+03</rscale>
<asrwt>0</asrwt>
<pdfrwt beam="1">  1        2 0.19136230E+00 0.39158618E+03</pdfrwt>
<pdfrwt beam="2">  1        2 0.48616996E+00 0.69598402E+02</pdfrwt>
<totfact> 0.60433026E+00</totfact>
</mgrwt>
</event>
<event>
13    1  0.2101801E-008  0.7132444E+02  0.7546771E-02  0.1426295E+00
          2   -1    0    0  503    0  0.00000000000E+00  0.00000000000E+00  0.74306912982E+03  0.74306912982E+03  0.00000000000E+00 0. -1.
          2   -1    0    0  502    0 -0.00000000000E+00 -0.00000000000E+00 -0.24431583775E+04  0.24431583775E+04  0.00000000000E+00 0. -1.
         24    2    1    2    0    0 -0.38477293364E+02 -0.67048151065E+02 -0.31318821634E+03  0.33208112185E+03  0.78835626300E+02 0.  0.
         25    2    1    2    0    0  0.35627880658E+03  0.81250137971E+02 -0.17285634585E+03  0.42313176100E+03  0.12499999172E+03 0.  0.
         24    2    1    2    0    0 -0.22064243305E+03 -0.42516752627E+02 -0.75521753793E+02  0.24895924689E+03  0.76068481004E+02 0.  0.
        -11    1    5    5    0    0 -0.17210382132E+01  0.10627336813E+02  0.15153076615E+01  0.10871909564E+02  0.00000000000E+00 0.  1.
         12    1    5    5    0    0 -0.21892139483E+03 -0.53144089439E+02 -0.77037061455E+02  0.23808733733E+03  0.00000000000E+00 0. -1.
        -13    1    3    3    0    0 -0.23819571751E+02 -0.68264844706E+02 -0.30817403815E+03  0.31654178052E+03  0.00000000000E+00 0.  1.
         14    1    3    3    0    0 -0.14657721614E+02  0.12166936403E+01 -0.50141781813E+01  0.15539341336E+02  0.00000000000E+00 0. -1.
          5    1    4    4  501    0  0.38415760490E+02 -0.17407259915E+02 -0.56208819520E+02  0.70429430948E+02  0.47000000000E+01 0.  1.
         -5    1    4    4    0  501  0.31786304609E+03  0.98657397886E+02 -0.11664752633E+03  0.35270233006E+03  0.47000000000E+01 0.  1.
          1    1    1    2  502    0 -0.38559785572E+02 -0.12211099526E+02 -0.16576090741E+04  0.16581024729E+04  0.00000000000E+00 0. -1.
          1    1    1    2  503    0 -0.58599294597E+02  0.40525865248E+02  0.51908614241E+03  0.52395290468E+03  0.00000000000E+00 0. -1.
<mgrwt>
<rscale>  0 0.53710955E+02</rscale>
<asrwt>0</asrwt>
<pdfrwt beam="1">  1        2 0.10927487E+00 0.71324437E+02</pdfrwt>
<pdfrwt beam="2">  1        2 0.35928800E+00 0.40447101E+02</pdfrwt>
<totfact> 0.42115462E+01</totfact>
</mgrwt>
</event>
<event>
13    1  0.2101801E-008  0.1835284E+03  0.7546771E-02  0.1288633E+00
          2   -1    0    0  503    0  0.00000000000E+00  0.00000000000E+00  0.23538225403E+04  0.23538225403E+04  0.00000000000E+00 0. -1.
          2   -1    0    0  502    0 -0.00000000000E+00 -0.00000000000E+00 -0.16030497161E+04  0.16030497161E+04  0.00000000000E+00 0. -1.
         24    2    1    2    0    0  0.16481384359E+03 -0.76189988885E+03 -0.30173654958E+03  0.84032607518E+03  0.86301353454E+02 0.  0.
         25    2    1    2    0    0 -0.14341800976E+03  0.16751046149E+03  0.21009820453E+03  0.32923296228E+03  0.12499843068E+03 0.  0.
         24    2    1    2    0    0  0.15928196123E+02  0.76081894098E+03 -0.80672773641E+02  0.76981755822E+03  0.83736540099E+02 0.  0.
        -13    1    3    3    0    0  0.40846199065E+02 -0.39246401483E+03 -0.14875756922E+03  0.42169328820E+03  0.00000000000E+00 0.  1.
         14    1    3    3    0    0  0.12396764452E+03 -0.36943587402E+03 -0.15297898036E+03  0.41863278698E+03  0.00000000000E+00 0. -1.
        -13    1    5    5    0    0  0.11109930194E+02  0.28530745950E+03  0.10070009698E+02  0.28570121121E+03  0.00000000000E+00 0.  1.
         14    1    5    5    0    0  0.48182659298E+01  0.47551148148E+03 -0.90742783339E+02  0.48411634700E+03  0.00000000000E+00 0. -1.
          5    1    4    4  501    0 -0.16191959695E+03  0.14863778318E+03  0.20742697386E+03  0.30225682119E+03  0.47000000000E+01 0.  1.
         -5    1    4    4    0  501  0.18501587193E+02  0.18872678307E+02  0.26712306691E+01  0.26976141096E+02  0.47000000000E+01 0.  1.
          1    1    1    2  502    0 -0.47430988522E+02  0.16925854679E+02 -0.54029652040E+03  0.54263847374E+03  0.00000000000E+00 0. -1.
          1    1    1    2  503    0  0.10106958570E+02 -0.18335536829E+03  0.14633804633E+04  0.14748571870E+04  0.00000000000E+00 0. -1.
<mgrwt>
<rscale>  0 0.96138385E+02</rscale>
<asrwt>0</asrwt>
<pdfrwt beam="1">  1        2 0.34615038E+00 0.18352842E+03</pdfrwt>
<pdfrwt beam="2">  1        2 0.23574260E+00 0.50360532E+02</pdfrwt>
<totfact> 0.13527940E+01</totfact>
</mgrwt>
</event>
<event>
13    1  0.2101801E-008  0.1046072E+03  0.7546771E-02  0.1467851E+00
          2   -1    0    0  503    0  0.00000000000E+00  0.00000000000E+00  0.25192062520E+04  0.25192062520E+04  0.00000000000E+00 0. -1.
          2   -1    0    0  502    0 -0.00000000000E+00 -0.00000000000E+00 -0.23148541013E+04  0.23148541013E+04  0.00000000000E+00 0. -1.
         24    2    1    2    0    0 -0.32781633621E+02 -0.27857368746E+03 -0.11269203950E+04  0.11639086546E+04  0.77819307797E+02 0.  0.
         25    2    1    2    0    0 -0.36075685018E+02  0.37638210062E+03  0.17440421357E+04  0.17889306517E+04  0.12499985978E+03 0.  0.
         24    2    1    2    0    0  0.15857704788E+02 -0.16540692178E+01 -0.42379392730E+02  0.91811953908E+02  0.79870014436E+02 0.  0.
        -13    1    5    5    0    0  0.29739097621E+02 -0.34500773225E+02 -0.20279565885E+02  0.49859583561E+02  0.00000000000E+00 0.  1.
         14    1    5    5    0    0 -0.13881392832E+02  0.32846704007E+02 -0.22099826845E+02  0.41952370346E+02  0.00000000000E+00 0. -1.
        -13    1    3    3    0    0  0.20784342104E+02 -0.15362115877E+03 -0.58370799272E+03  0.60394243936E+03  0.00000000000E+00 0.  1.
         14    1    3    3    0    0 -0.53565975725E+02 -0.12495252869E+03 -0.54321240228E+03  0.55996621520E+03  0.00000000000E+00 0. -1.
          5    1    4    4  501    0  0.56900773482E+01  0.34167828073E+03  0.15594613995E+04  0.15964705982E+04  0.47000000000E+01 0.  1.
         -5    1    4    4    0  501 -0.41765762366E+02  0.34703819892E+02  0.18458073619E+03  0.19246005350E+03  0.47000000000E+01 0.  1.
          1    1    1    2  502    0  0.62665093247E+02 -0.11398042866E+03 -0.10758367545E+04  0.10836711560E+04  0.00000000000E+00 0. -1.
          1    1    1    2  503    0 -0.96654793961E+01  0.17826084727E+02  0.70544655721E+03  0.70573793710E+03  0.00000000000E+00 0. -1.
<mgrwt>
<rscale>  0 0.46056579E+02</rscale>
<asrwt>0</asrwt>
<pdfrwt beam="1">  1        2 0.37047151E+00 0.20277840E+02</pdfrwt>
<pdfrwt beam="2">  1        2 0.34041972E+00 0.10460722E+03</pdfrwt>
<totfact> 0.64403900E+00</totfact>
</mgrwt>
</event>
<event>
13    1  0.2101801E-008  0.8091024E+02  0.7546771E-02  0.1383638E+00
         -3   -1    0    0    0  501 -0.00000000000E+00  0.00000000000E+00  0.18299480739E+03  0.18299480739E+03  0.00000000000E+00 0.  1.
          2   -1    0    0  503    0  0.00000000000E+00 -0.00000000000E+00 -0.43210290985E+04  0.43210290985E+04  0.00000000000E+00 0. -1.
         24    2    1    2    0    0  0.29243389708E+02  0.19145932026E+03  0.25007787143E+02  0.21070270952E+03  0.79110019752E+02 0.  0.
         25    2    1    2    0    0 -0.18761055134E+03 -0.10055512056E+03 -0.64221144380E+03  0.68802000115E+03  0.12500772854E+03 0.  0.
         24    2    1    2    0    0  0.51240345539E+02 -0.92728976578E+02 -0.12116676828E+04  0.12196439430E+04  0.90379965535E+02 0.  0.
        -11    1    3    3    0    0  0.54446476983E+02  0.12574641695E+03  0.33615823547E+01  0.13706888949E+03  0.00000000000E+00 0.  1.
         12    1    3    3    0    0 -0.25203087275E+02  0.65712903312E+02  0.21646204789E+02  0.73633820026E+02  0.00000000000E+00 0. -1.
        -11    1    5    5    0    0 -0.16495824834E+02 -0.48593582493E+02 -0.67170538281E+03  0.67366280125E+03  0.00000000000E+00 0.  1.
         12    1    5    5    0    0  0.67736170373E+02 -0.44135394085E+02 -0.53996229997E+03  0.54598114177E+03  0.00000000000E+00 0. -1.
          5    1    4    4  502    0 -0.38011349466E+02 -0.25171856670E+02 -0.33792733432E+02  0.56943163674E+02  0.47000000000E+01 0. -1.
         -5    1    4    4    0  502 -0.14959920187E+03 -0.75383263891E+02 -0.60841871037E+03  0.63107683748E+03  0.47000000000E+01 0. -1.
          1    1    1    2  503    0  0.73062767358E+02 -0.34588923255E+02 -0.23301542081E+04  0.23315559601E+04  0.00000000000E+00 0. -1.
         -4    1    1    2    0  501  0.34064048731E+02  0.36413700137E+02  0.20991256327E+02  0.54101292183E+02  0.00000000000E+00 0.  1.
<mgrwt>
<rscale>  0 0.63517130E+02</rscale>
<asrwt>0</asrwt>
<pdfrwt beam="2">  1        2 0.63544549E+00 0.80910238E+02</pdfrwt>
<pdfrwt beam="1">  1       -3 0.26911000E-01 0.49862982E+02</pdfrwt>
<totfact> 0.33406794E+00</totfact>
</mgrwt>
</event>
<event>
13    1  0.2101801E-008  0.1162476E+03  0.7546771E-02  0.1278753E+00
          2   -1    0    0  503    0  0.00000000000E+00  0.00000000000E+00  0.20767536744E+04  0.20767536744E+04  0.00000000000E+00 0. -1.
         -1   -1    0    0    0  501 -0.00000000000E+00 -0.00000000000E+00 -0.13340369112E+04  0.13340369112E+04  0.00000000000E+00 0.  1.
         24    2    1    2    0    0 -0.16766556248E+02 -0.15045134292E+03 -0.64054083204E+03  0.66325294491E+03  0.81824124897E+02 0.  0.
         25    2    1    2    0    0  0.17427519379E+03  0.28321199429E+03  0.36615512993E+03  0.51017352182E+03  0.12500626512E+03 0.  0.
         24    2    1    2    0    0  0.50748915573E+01 -0.30153853155E+02  0.16051900846E+03  0.18254575126E+03  0.81373151853E+02 0.  0.
        -13    1    5    5    0    0 -0.27362182469E+02  0.11446143098E+02  0.88044309185E+02  0.92905885719E+02  0.00000000000E+00 0.  1.
         14    1    5    5    0    0  0.32437074026E+02 -0.41599996253E+02  0.72474699272E+02  0.89639865541E+02  0.00000000000E+00 0. -1.
        -13    1    3    3    0    0 -0.41531670202E+02 -0.12362035872E+03 -0.55731907376E+03  0.57237349930E+03  0.00000000000E+00 0.  1.
         14    1    3    3    0    0  0.24765113954E+02 -0.26830984204E+02 -0.83221758284E+02  0.90879445610E+02  0.00000000000E+00 0. -1.
          5    1    4    4  502    0  0.14332489739E+03  0.24384424537E+03  0.36239909775E+03  0.45973605282E+03  0.47000000000E+01 0. -1.
         -5    1    4    4    0  502  0.30950296394E+02  0.39367748918E+02  0.37560321791E+01  0.50437469004E+02  0.47000000000E+01 0. -1.
          1    1    1    2  503    0 -0.76033161709E+02 -0.11411089353E+03  0.14492663808E+04  0.14557387747E+04  0.00000000000E+00 0. -1.
         -2    1    1    2    0  501 -0.86550367389E+02  0.11504095316E+02 -0.59268292393E+03  0.59907959289E+03  0.00000000000E+00 0.  1.
<mgrwt>
<rscale>  0 0.10073731E+03</rscale>
<asrwt>0</asrwt>
<pdfrwt beam="1">  1        2 0.30540495E+00 0.11624760E+03</pdfrwt>
<pdfrwt beam="2">  1       -1 0.19618190E+00 0.87296469E+02</pdfrwt>
<totfact> 0.18628221E+00</totfact>
</mgrwt>
</event>
<event>
13    1  0.2101801E-008  0.9274833E+02  0.7546771E-02  0.1307448E+00
          2   -1    0    0  503    0  0.00000000000E+00  0.00000000000E+00  0.58489056736E+03  0.58489056736E+03  0.00000000000E+00 0. -1.
          2   -1    0    0  502    0 -0.00000000000E+00 -0.00000000000E+00 -0.10296113590E+04  0.10296113590E+04  0.00000000000E+00 0. -1.
         24    2    1    2    0    0 -0.14983923324E+02  0.61640634112E+01 -0.75542313164E+02  0.11073442429E+03  0.79328166555E+02 0.  0.
         25    2    1    2    0    0 -0.15925193669E+03  0.21120733544E+02  0.51091101219E+02  0.20985631919E+03  0.12498843688E+03 0.  0.
         24    2    1    2    0    0 -0.12288669253E+02  0.21912990195E+02  0.18092899354E+03  0.20070004350E+03  0.83150563599E+02 0.  0.
        -11    1    5    5    0    0 -0.33714142856E+02  0.41355548717E+02  0.83722571218E+02  0.99279372326E+02  0.00000000000E+00 0.  1.
         12    1    5    5    0    0  0.21425473603E+02 -0.19442558522E+02  0.97206422319E+02  0.10142067117E+03  0.00000000000E+00 0. -1.
        -11    1    3    3    0    0 -0.14019629511E+02  0.41150425691E+02 -0.28043263557E+02  0.51733279203E+02  0.00000000000E+00 0.  1.
         12    1    3    3    0    0 -0.96429381256E+00 -0.34986362280E+02 -0.47499049606E+02  0.59001145087E+02  0.00000000000E+00 0. -1.
          5    1    4    4  501    0 -0.82012069764E+02  0.86630918620E+01  0.90161341839E+02  0.12227913277E+03  0.47000000000E+01 0. -1.
         -5    1    4    4    0  501 -0.77239866928E+02  0.12457641682E+02 -0.39070240620E+02  0.87577186421E+02  0.47000000000E+01 0. -1.
          1    1    1    2  502    0  0.89565953991E+02 -0.46737637282E+02 -0.83447863339E+03  0.84057186274E+03  0.00000000000E+00 0. -1.
          1    1    1    2  503    0  0.96958575277E+02 -0.24601498680E+01  0.23328006014E+03  0.25263927667E+03  0.00000000000E+00 0. -1.
<mgrwt>
<rscale>  0 0.88128377E+02</rscale>
<asrwt>0</asrwt>
<pdfrwt beam="1">  1        2 0.86013320E-01 0.92748327E+02</pdfrwt>
<pdfrwt beam="2">  1        2 0.15141343E+00 0.83738554E+02</pdfrwt>
<totfact> 0.24804447E+02</totfact>
</mgrwt>
</event>
<event>
13    1  0.2101801E-008  0.2971140E+03  0.7546771E-02  0.1179531E+00
         -1   -1    0    0    0  501 -0.00000000000E+00  0.00000000000E+00  0.62154335926E+03  0.62154335926E+03  0.00000000000E+00 0.  1.
          2   -1    0    0  503    0  0.00000000000E+00 -0.00000000000E+00 -0.18509259641E+04  0.18509259641E+04  0.00000000000E+00 0. -1.
         24    2    1    2    0    0  0.40966466904E+02  0.51034953697E+02 -0.18481941455E+02  0.10719572312E+03  0.82864485677E+02 0.  0.
         25    2    1    2    0    0 -0.54156762458E+00  0.26185245740E+03 -0.15165870378E+03  0.32740214058E+03  0.12499918592E+03 0.  0.
         24    2    1    2    0    0 -0.40529957145E+02  0.50268208594E+02 -0.23721804578E+03  0.26051579881E+03  0.86177200979E+02 0.  0.
        -13    1    3    3    0    0  0.96497426988E+01  0.67789389006E+02 -0.20914520988E+02  0.71595642214E+02  0.00000000000E+00 0.  1.
         14    1    3    3    0    0  0.31316724205E+02 -0.16754435309E+02  0.24325795326E+01  0.35600080908E+02  0.00000000000E+00 0. -1.
        -13    1    5    5    0    0 -0.42907284905E+02  0.55978812890E+02 -0.95804723483E+02  0.11896725445E+03  0.00000000000E+00 0.  1.
         14    1    5    5    0    0  0.23773277596E+01 -0.57106042968E+01 -0.14141332229E+03  0.14154854436E+03  0.00000000000E+00 0. -1.
          5    1    4    4  502    0 -0.76651373328E+01  0.27192573241E+03 -0.15585025747E+03  0.31355023685E+03  0.47000000000E+01 0. -1.
         -5    1    4    4    0  502  0.71235697082E+01 -0.10073275004E+02  0.41915536841E+01  0.13851903732E+02  0.47000000000E+01 0. -1.
          1    1    1    2  503    0  0.69360069673E+02 -0.65562691385E+02 -0.12488204257E+04  0.12524622714E+04  0.00000000000E+00 0. -1.
         -2    1    1    2    0  501 -0.69255011808E+02 -0.29759292831E+03  0.42679651190E+03  0.52489338937E+03  0.00000000000E+00 0.  1.
<mgrwt>
<rscale>  0 0.16839635E+03</rscale>
<asrwt>0</asrwt>
<pdfrwt beam="2">  1        2 0.27219499E+00 0.95442578E+02</pdfrwt>
<pdfrwt beam="1">  1       -1 0.91403435E-01 0.29711404E+03</pdfrwt>
<totfact> 0.15346915E+01</totfact>
</mgrwt>
</event>
<event>
13    1  0.2101801E-008  0.9662761E+02  0.7546771E-02  0.1452228E+00
          2   -1    0    0  502    0  0.00000000000E+00  0.00000000000E+00  0.23893128258E+04  0.23893128258E+04  0.00000000000E+00 0. -1.
          2   -1    0    0  503    0 -0.00000000000E+00 -0.00000000000E+00 -0.37341821768E+04  0.37341821768E+04  0.00000000000E+00 0. -1.
         24    2    1    2    0    0 -0.10440105572E+03  0.20517684219E+03 -0.17569776790E+04  0.17738714909E+04  0.81562151134E+02 0.  0.
         25    2    1    2    0    0 -0.24466989195E+03  0.56112861408E+03 -0.67521665205E+02  0.62842103071E+03  0.12500055600E+03 0.  0.
         24    2    1    2    0    0  0.24697421932E+03 -0.80124559943E+03  0.42934387464E+03  0.94515168976E+03  0.77361349214E+02 0.  0.
        -11    1    5    5    0    0  0.13797922919E+03 -0.56697040936E+03  0.30426188913E+03  0.65807978996E+03  0.00000000000E+00 0.  1.
         12    1    5    5    0    0  0.10899499013E+03 -0.23427519007E+03  0.12508198551E+03  0.28707189980E+03  0.00000000000E+00 0. -1.
        -11    1    3    3    0    0  0.83458467457E+01  0.50164207400E+02 -0.29012681034E+03  0.29454993964E+03  0.00000000000E+00 0.  1.
         12    1    3    3    0    0 -0.11274690247E+03  0.15501263479E+03 -0.14668508687E+04  0.14793215512E+04  0.00000000000E+00 0. -1.
          5    1    4    4  501    0 -0.95337524936E+02  0.11810183151E+03  0.18685443655E+02  0.15299843813E+03  0.47000000000E+01 0.  1.
         -5    1    4    4    0  501 -0.14933236701E+03  0.44302678257E+03 -0.86207108860E+02  0.47542259258E+03  0.47000000000E+01 0.  1.
          1    1    1    2  502    0  0.82669111068E+02  0.50015261529E+02  0.14114057129E+04  0.14147090848E+04  0.00000000000E+00 0. -1.
          1    1    1    2  503    0  0.19427617283E+02 -0.15075118369E+02 -0.13611195943E+04  0.13613417064E+04  0.00000000000E+00 0. -1.
<mgrwt>
<rscale>  0 0.48745450E+02</rscale>
<asrwt>0</asrwt>
<pdfrwt beam="1">  1        2 0.35136953E+00 0.96627609E+02</pdfrwt>
<pdfrwt beam="2">  1        2 0.54914444E+00 0.24590476E+02</pdfrwt>
<totfact> 0.13713911E+00</totfact>
</mgrwt>
</event>
<event>
13    1  0.2101801E-008  0.1664543E+03  0.7546771E-02  0.1333564E+00
          2   -1    0    0  502    0  0.00000000000E+00  0.00000000000E+00  0.10360312156E+04  0.10360312156E+04  0.00000000000E+00 0. -1.
          2   -1    0    0  503    0 -0.00000000000E+00 -0.00000000000E+00 -0.14574498636E+04  0.14574498636E+04  0.00000000000E+00 0. -1.
         24    2    1    2    0    0  0.16546013905E+02 -0.19856642414E+02 -0.73721215724E+02  0.11324963293E+03  0.81991492764E+02 0.  0.
         25    2    1    2    0    0  0.16285199284E+03 -0.39395206667E+02  0.50189892023E+03  0.54369159862E+03  0.12500109764E+03 0.  0.
         24    2    1    2    0    0 -0.15494620651E+03  0.21563384885E+03 -0.12261305818E+04  0.12571785801E+04  0.81212653160E+02 0.  0.
        -11    1    3    3    0    0 -0.14358242038E+01 -0.29415822857E+02  0.67726920636E+01  0.30219556305E+02  0.00000000000E+00 0.  1.
         12    1    3    3    0    0  0.17981838109E+02  0.95591804430E+01 -0.80493907788E+02  0.83030076620E+02  0.00000000000E+00 0. -1.
        -13    1    5    5    0    0 -0.11711401327E+03  0.19997100289E+03 -0.94061225777E+03  0.96873913598E+03  0.00000000000E+00 0.  1.
         14    1    5    5    0    0 -0.37832193243E+02  0.15662845960E+02 -0.28551832399E+03  0.28843944412E+03  0.00000000000E+00 0. -1.
          5    1    4    4  501    0  0.17277326016E+03 -0.53981382646E+02  0.48869350291E+03  0.52116026219E+03  0.47000000000E+01 0.  1.
         -5    1    4    4    0  501 -0.99212673230E+01  0.14586175979E+02  0.13205417314E+02  0.22531336432E+02  0.47000000000E+01 0.  1.
          1    1    1    2  502    0 -0.61370242803E+02 -0.15472298030E+03  0.45940210414E+03  0.48862644282E+03  0.00000000000E+00 0. -1.
          1    1    1    2  503    0  0.36918442569E+02 -0.16590194738E+01 -0.82867874796E+02  0.90734824739E+02  0.00000000000E+00 0. -1.
<mgrwt>
<rscale>  0 0.78431087E+02</rscale>
<asrwt>0</asrwt>
<pdfrwt beam="1">  1        2 0.15235753E+00 0.16645431E+03</pdfrwt>
<pdfrwt beam="2">  1        2 0.21433086E+00 0.36955700E+02</pdfrwt>
<totfact> 0.77345381E+01</totfact>
</mgrwt>
</event>
<event>
13    1  0.2101801E-008  0.1244490E+03  0.7546771E-02  0.1374575E+00
          4   -1    0    0  503    0 -0.00000000000E+00  0.00000000000E+00  0.59043817339E+03  0.59043817339E+03  0.00000000000E+00 0. -1.
          2   -1    0    0  502    0  0.00000000000E+00 -0.00000000000E+00 -0.27425788060E+04  0.27425788060E+04  0.00000000000E+00 0. -1.
         24    2    1    2    0    0 -0.22636021266E+02 -0.67560707440E+02  0.64671656152E+02  0.12561528361E+03  0.80746131283E+02 0.  0.
         25    2    1    2    0    0 -0.23182349023E+02  0.14066469514E+03  0.67654712739E+02  0.20131086196E+03  0.12499970090E+03 0.  0.
         24    2    1    2    0    0 -0.11638708542E+02 -0.19794888272E+01 -0.39686311293E+02  0.91275103591E+02  0.81343489714E+02 0.  0.
        -11    1    3    3    0    0  0.18906810033E+02 -0.13291206382E+01  0.38939884478E+02  0.43307604765E+02  0.00000000000E+00 0.  1.
         12    1    3    3    0    0 -0.41542831299E+02 -0.66231586801E+02  0.25731771675E+02  0.82307678841E+02  0.00000000000E+00 0. -1.
        -13    1    5    5    0    0 -0.39427635948E+02 -0.48850406706E+00 -0.48105431235E+02  0.62200559699E+02  0.00000000000E+00 0.  1.
         14    1    5    5    0    0  0.27788927405E+02 -0.14909847601E+01  0.84191199414E+01  0.29074543891E+02  0.00000000000E+00 0. -1.
          5    1    4    4  501    0 -0.61610611084E+01  0.94788611386E+02 -0.23304397969E+02  0.97918458358E+02  0.47000000000E+01 0. -1.
         -5    1    4    4    0  501 -0.17021287915E+02  0.45876083752E+02  0.90959110707E+02  0.10339240361E+03  0.47000000000E+01 0. -1.
          1    1    1    2  502    0  0.87877277557E+02 -0.88248058461E+02 -0.25773811815E+04  0.25803883217E+04  0.00000000000E+00 0. -1.
          3    1    1    2  503    0 -0.30420198725E+02  0.17123559588E+02  0.33260049131E+03  0.33442740857E+03  0.00000000000E+00 0. -1.
<mgrwt>
<rscale>  0 0.65911534E+02</rscale>
<asrwt>0</asrwt>
<pdfrwt beam="2">  1        2 0.40332042E+00 0.12444900E+03</pdfrwt>
<pdfrwt beam="1">  1        4 0.86829142E-01 0.34908520E+02</pdfrwt>
<totfact> 0.21436268E+00</totfact>
</mgrwt>
</event>
<event>
13    1  0.2101801E-008  0.1101481E+03  0.7546771E-02  0.1284689E+00
          2   -1    0    0  502    0  0.00000000000E+00  0.00000000000E+00  0.12172760947E+04  0.12172760947E+04  0.00000000000E+00 0. -1.
          2   -1    0    0  503    0 -0.00000000000E+00 -0.00000000000E+00 -0.76204108779E+03  0.76204108779E+03  0.00000000000E+00 0. -1.
         24    2    1    2    0    0  0.32956602479E+03  0.31287376924E+02 -0.58701539088E+02  0.34616988325E+03  0.82432109805E+02 0.  0.
         25    2    1    2    0    0 -0.16329734032E+03  0.16192718368E+03 -0.14593878487E+03  0.29968132460E+03  0.12499733283E+03 0.  0.
         24    2    1    2    0    0 -0.14252554190E+03 -0.19709947713E+03  0.32859014505E+03  0.41658297068E+03  0.80050946637E+02 0.  0.
        -11    1    3    3    0    0  0.26844176783E+03  0.10302984061E+01 -0.23640776413E+02  0.26948270917E+03  0.00000000000E+00 0.  1.
         12    1    3    3    0    0  0.61124256958E+02  0.30257078518E+02 -0.35060762675E+02  0.76687174080E+02  0.00000000000E+00 0. -1.
        -13    1    5    5    0    0 -0.10590087686E+03 -0.12134001399E+03  0.26880230266E+03  0.31335773906E+03  0.00000000000E+00 0.  1.
         14    1    5    5    0    0 -0.36624665044E+02 -0.75759463142E+02  0.59787842388E+02  0.10322523162E+03  0.00000000000E+00 0. -1.
          5    1    4    4  501    0 -0.65262384010E+02  0.77444281780E+01 -0.83876257161E+02  0.10666054308E+03  0.47000000000E+01 0. -1.
         -5    1    4    4    0  501 -0.98034956313E+02  0.15418275550E+03 -0.62062527704E+02  0.19302078152E+03  0.47000000000E+01 0. -1.
          1    1    1    2  502    0 -0.11060888376E+03  0.10055773839E+02  0.61250238989E+03  0.62249065967E+03  0.00000000000E+00 0. -1.
          1    1    1    2  503    0  0.86865741199E+02 -0.61708573107E+01 -0.28121720410E+03  0.29439234426E+03  0.00000000000E+00 0. -1.
<mgrwt>
<rscale>  0 0.97939842E+02</rscale>
<asrwt>0</asrwt>
<pdfrwt beam="1">  1        2 0.17901119E+00 0.11014814E+03</pdfrwt>
<pdfrwt beam="2">  1        2 0.11206487E+00 0.87084651E+02</pdfrwt>
<totfact> 0.14311760E+02</totfact>
</mgrwt>
</event>
<event>
13    1  0.2101801E-008  0.1122155E+03  0.7546771E-02  0.1358874E+00
          2   -1    0    0  502    0  0.00000000000E+00  0.00000000000E+00  0.21364079102E+04  0.21364079102E+04  0.00000000000E+00 0. -1.
          2   -1    0    0  503    0 -0.00000000000E+00 -0.00000000000E+00 -0.16445388692E+04  0.16445388692E+04  0.00000000000E+00 0. -1.
         24    2    1    2    0    0 -0.77801515064E+02 -0.39325771651E+02 -0.89165291305E+03  0.89967782982E+03  0.82314567730E+02 0.  0.
         25    2    1    2    0    0 -0.48674904602E+02 -0.11104887924E+03  0.11767018930E+03  0.21017101757E+03  0.12499793301E+03 0.  0.
         24    2    1    2    0    0  0.35574365802E+02 -0.28427385412E+02 -0.11552276767E+01  0.94644425260E+02  0.82961321942E+02 0.  0.
        -13    1    3    3    0    0 -0.71845677336E+02 -0.38028904975E+02 -0.40971148089E+03  0.41769785317E+03  0.00000000000E+00 0.  1.
         14    1    3    3    0    0 -0.59558377288E+01 -0.12968666763E+01 -0.48194143215E+03  0.48197997665E+03  0.00000000000E+00 0. -1.
        -13    1    5    5    0    0  0.56070869860E+02 -0.18885996411E+02  0.21200218183E+02  0.62849602690E+02  0.00000000000E+00 0.  1.
         14    1    5    5    0    0 -0.20496504059E+02 -0.95413890011E+01 -0.22355445859E+02  0.31794822570E+02  0.00000000000E+00 0. -1.
          5    1    4    4  501    0  0.21371606516E+02 -0.58756208859E+02  0.10418913811E+03  0.12159977033E+03  0.47000000000E+01 0. -1.
         -5    1    4    4    0  501 -0.70046511118E+02 -0.52292670384E+02  0.13481051184E+02  0.88571247235E+02  0.47000000000E+01 0. -1.
          1    1    1    2  502    0  0.20198864532E+02  0.39220127059E+02  0.19121239487E+04  0.19126327947E+04  0.00000000000E+00 0. -1.
          1    1    1    2  503    0  0.70703189333E+02  0.13958190925E+03 -0.64511695630E+03  0.66382071200E+03  0.00000000000E+00 0. -1.
<mgrwt>
<rscale>  0 0.70359711E+02</rscale>
<asrwt>0</asrwt>
<pdfrwt beam="1">  1        2 0.31417763E+00 0.44115898E+02</pdfrwt>
<pdfrwt beam="2">  1        2 0.24184395E+00 0.11221553E+03</pdfrwt>
<totfact> 0.18172478E+01</totfact>
</mgrwt>
</event>
<event>
13    1  0.2101801E-008  0.8290531E+02  0.7546771E-02  0.1359745E+00
          2   -1    0    0  502    0  0.00000000000E+00  0.00000000000E+00  0.18008889848E+04  0.18008889848E+04  0.00000000000E+00 0. -1.
          2   -1    0    0  503    0 -0.00000000000E+00 -0.00000000000E+00 -0.22261023471E+03  0.22261023471E+03  0.00000000000E+00 0. -1.
         24    2    1    2    0    0 -0.40264257734E+02  0.80636968191E+00  0.11759902316E+03  0.14688664394E+03  0.78257876518E+02 0.  0.
         25    2    1    2    0    0  0.13268047683E+03 -0.93034759827E+02  0.77907950765E+03  0.80551215271E+03  0.12500149379E+03 0.  0.
         24    2    1    2    0    0  0.37641942449E+02  0.39784652825E+02  0.54510670912E+02  0.11067718771E+03  0.79235675069E+02 0.  0.
        -11    1    5    5    0    0 -0.21871063938E+02  0.84889273770E+01  0.32184051257E+02  0.39827358450E+02  0.00000000000E+00 0.  1.
         12    1    5    5    0    0  0.59513006387E+02  0.31295725448E+02  0.22326619655E+02  0.70849829257E+02  0.00000000000E+00 0. -1.
        -11    1    3    3    0    0 -0.18383632281E+02  0.26122697715E+02  0.89085068767E+01  0.33161947568E+02  0.00000000000E+00 0.  1.
         12    1    3    3    0    0 -0.21880625453E+02 -0.25316328033E+02  0.10869051628E+03  0.11372469637E+03  0.00000000000E+00 0. -1.
          5    1    4    4  501    0  0.83997521940E+02 -0.61161284437E+02  0.69740840936E+03  0.70512188014E+03  0.47000000000E+01 0.  1.
         -5    1    4    4    0  501  0.48682954888E+02 -0.31873475390E+02  0.81671098294E+02  0.10039027257E+03  0.47000000000E+01 0.  1.
          1    1    1    2  502    0 -0.57864040353E+02  0.12863043235E+02  0.78239847981E+03  0.78464073706E+03  0.00000000000E+00 0. -1.
          1    1    1    2  503    0 -0.72194121189E+02  0.39580694085E+02 -0.15530893140E+03  0.17578249814E+03  0.00000000000E+00 0. -1.
<mgrwt>
<rscale>  0 0.70102339E+02</rscale>
<asrwt>0</asrwt>
<pdfrwt beam="1">  1        2 0.26483661E+00 0.59276513E+02</pdfrwt>
<pdfrwt beam="2">  1        2 0.32736800E-01 0.82905313E+02</pdfrwt>
<totfact> 0.29017323E+02</totfact>
</mgrwt>
</event>
<event>
13    1  0.2101801E-008  0.1181615E+03  0.7546771E-02  0.1274572E+00
          2   -1    0    0  503    0  0.00000000000E+00  0.00000000000E+00  0.43137742505E+04  0.43137742505E+04  0.00000000000E+00 0. -1.
         -1   -1    0    0    0  501 -0.00000000000E+00 -0.00000000000E+00 -0.43964935250E+03  0.43964935250E+03  0.00000000000E+00 0.  1.
         24    2    1    2    0    0  0.12951834924E+02  0.16053384358E+03 -0.93638537443E+02  0.20291388999E+03  0.80417697621E+02 0.  0.
         25    2    1    2    0    0 -0.18924974579E+03 -0.16990466304E+03  0.35748437879E+03  0.45618344797E+03  0.12500078525E+03 0.  0.
         24    2    1    2    0    0 -0.45985547127E+02  0.13914924528E+02 -0.10371796580E+02  0.94719834061E+02  0.80968988699E+02 0.  0.
        -11    1    3    3    0    0  0.34936378446E+02  0.58762880600E+02 -0.94437179963E+01  0.69013118209E+02  0.00000000000E+00 0.  1.
         12    1    3    3    0    0 -0.21984543522E+02  0.10177096298E+03 -0.84194819446E+02  0.13390077178E+03  0.00000000000E+00 0. -1.
        -13    1    5    5    0    0 -0.36118160310E+02  0.47186754080E+02 -0.75557361744E+01  0.59901589410E+02  0.00000000000E+00 0.  1.
         14    1    5    5    0    0 -0.98673868175E+01 -0.33271829552E+02 -0.28160604054E+01  0.34818244650E+02  0.00000000000E+00 0. -1.
          5    1    4    4  502    0 -0.19689033453E+03 -0.11883406703E+03  0.30883002702E+03  0.38507845293E+03  0.47000000000E+01 0.  1.
         -5    1    4    4    0  502  0.76405887435E+01 -0.51070596007E+02  0.48654351776E+02  0.71104995040E+02  0.47000000000E+01 0.  1.
          1    1    1    2  503    0  0.64390171921E+02 -0.62000556675E+02  0.37722456692E+04  0.37733045930E+04  0.00000000000E+00 0. -1.
         -2    1    1    2    0  501  0.15789328607E+03  0.57456451603E+02 -0.15159481597E+03  0.22630183792E+03  0.00000000000E+00 0.  1.
<mgrwt>
<rscale>  0 0.10277249E+03</rscale>
<asrwt>0</asrwt>
<pdfrwt beam="1">  1        2 0.63437854E+00 0.89387713E+02</pdfrwt>
<pdfrwt beam="2">  1       -1 0.64654319E-01 0.11816148E+03</pdfrwt>
<totfact> 0.13406746E+00</totfact>
</mgrwt>
</event>
<event>
13    1  0.2101801E-008  0.3844054E+02  0.7546771E-02  0.1544095E+00
          2   -1    0    0  502    0  0.00000000000E+00  0.00000000000E+00  0.43574169911E+03  0.43574169911E+03  0.00000000000E+00 0. -1.
          2   -1    0    0  503    0 -0.00000000000E+00 -0.00000000000E+00 -0.12113733567E+04  0.12113733567E+04  0.00000000000E+00 0. -1.
         24    2    1    2    0    0  0.68025811737E+02  0.13183208977E+03 -0.33436093091E+03  0.37413171607E+03  0.78549970720E+02 0.  0.
         25    2    1    2    0    0 -0.18617752394E+02 -0.26357303789E+02 -0.24970706493E+02  0.13149620126E+03  0.12500554626E+03 0.  0.
         24    2    1    2    0    0 -0.72017300536E+02 -0.54645140632E+02 -0.26553777092E+03  0.29205809715E+03  0.81332904506E+02 0.  0.
        -11    1    5    5    0    0 -0.79085376540E+02 -0.64092489345E+02 -0.18950265884E+03  0.21511299747E+03  0.00000000000E+00 0.  1.
         12    1    5    5    0    0  0.70680760040E+01  0.94473487125E+01 -0.76035112079E+02  0.76945099681E+02  0.00000000000E+00 0. -1.
        -13    1    3    3    0    0  0.29878508214E+02  0.69774087078E+02 -0.83201174480E+02  0.11262141855E+03  0.00000000000E+00 0.  1.
         14    1    3    3    0    0  0.38147303523E+02  0.62058002689E+02 -0.25115975643E+03  0.26151029753E+03  0.00000000000E+00 0. -1.
          5    1    4    4  501    0 -0.25567870429E+02  0.47068263167E+02 -0.92058181422E+00  0.53778014715E+02  0.47000000000E+01 0. -1.
         -5    1    4    4    0  501  0.69501180345E+01 -0.73425566956E+02 -0.24050124679E+02  0.77718186549E+02  0.47000000000E+01 0. -1.
          1    1    1    2  502    0 -0.10333319031E+02 -0.31137792145E+02  0.34782399722E+03  0.34936781853E+03  0.00000000000E+00 0. -1.
          1    1    1    2  503    0  0.32942560225E+02 -0.19691853200E+02 -0.49858624653E+03  0.50006122283E+03  0.00000000000E+00 0. -1.
<mgrwt>
<rscale>  0 0.35512566E+02</rscale>
<asrwt>0</asrwt>
<pdfrwt beam="1">  1        2 0.64079663E-01 0.32807615E+02</pdfrwt>
<pdfrwt beam="2">  1        2 0.17814314E+00 0.38440537E+02</pdfrwt>
<totfact> 0.28630711E+02</totfact>
</mgrwt>
</event>
<event>
13    1  0.2101801E-008  0.2967249E+02  0.7546771E-02  0.1620566E+00
          2   -1    0    0  502    0  0.00000000000E+00  0.00000000000E+00  0.10564365824E+04  0.10564365824E+04  0.00000000000E+00 0. -1.
          2   -1    0    0  503    0 -0.00000000000E+00 -0.00000000000E+00 -0.25886014023E+04  0.25886014023E+04  0.00000000000E+00 0. -1.
         24    2    1    2    0    0 -0.23943100288E+03  0.14300519120E+03 -0.17908723431E+04  0.18141024599E+04  0.77241799711E+02 0.  0.
         25    2    1    2    0    0  0.16389736228E+03 -0.27052864787E+03  0.21471019166E+03  0.40220427739E+03  0.12497887688E+03 0.  0.
         24    2    1    2    0    0  0.85526454029E+02  0.72408800543E+02 -0.34260193108E+03  0.36898269369E+03  0.78831061942E+02 0.  0.
        -11    1    5    5    0    0  0.52166499874E+02  0.25928901731E+02 -0.73092078399E+02  0.93467125658E+02  0.00000000000E+00 0.  1.
         12    1    5    5    0    0  0.33359954155E+02  0.46479898812E+02 -0.26950985269E+03  0.27551556803E+03  0.00000000000E+00 0. -1.
        -11    1    3    3    0    0 -0.84175486786E+01  0.20982753671E+02 -0.27076599000E+03  0.27170821191E+03  0.00000000000E+00 0.  1.
         12    1    3    3    0    0 -0.23101345420E+03  0.12202243752E+03 -0.15201063531E+04  0.15423942480E+04  0.00000000000E+00 0. -1.
          5    1    4    4  501    0 -0.11900890636E+02 -0.78276752579E+02  0.43914266693E+02  0.90661094255E+02  0.47000000000E+01 0.  1.
         -5    1    4    4    0  501  0.17579825291E+03 -0.19225189529E+03  0.17079592497E+03  0.31154318313E+03  0.47000000000E+01 0.  1.
          1    1    1    2  502    0 -0.29910903111E+01  0.29517789457E+02  0.72234583297E+03  0.72295487337E+03  0.00000000000E+00 0. -1.
          1    1    1    2  503    0 -0.70017231167E+01  0.25596866675E+02 -0.33574657029E+03  0.33679368042E+03  0.00000000000E+00 0. -1.
<mgrwt>
<rscale>  0 0.28061096E+02</rscale>
<asrwt>0</asrwt>
<pdfrwt beam="1">  1        2 0.15535832E+00 0.29672487E+02</pdfrwt>
<pdfrwt beam="2">  1        2 0.38067668E+00 0.26537214E+02</pdfrwt>
<totfact> 0.25986404E+01</totfact>
</mgrwt>
</event>
<event>
13    1  0.2101801E-008  0.2692580E+03  0.7546771E-02  0.1291748E+00
          2   -1    0    0  503    0  0.00000000000E+00  0.00000000000E+00  0.11416238125E+04  0.11416238125E+04  0.00000000000E+00 0. -1.
          2   -1    0    0  502    0 -0.00000000000E+00 -0.00000000000E+00 -0.24229019585E+04  0.24229019585E+04  0.00000000000E+00 0. -1.
         24    2    1    2    0    0 -0.92170851160E+02  0.18723896545E+03 -0.65180713924E+03  0.68957303945E+03  0.84288397709E+02 0.  0.
         25    2    1    2    0    0 -0.10809679550E+03  0.70822196188E+02  0.90501609339E+03  0.92270193006E+03  0.12499608705E+03 0.  0.
         24    2    1    2    0    0  0.80583063997E+02  0.24483082182E+02 -0.42626034391E+02  0.12326227146E+03  0.79268892016E+02 0.  0.
        -11    1    3    3    0    0  0.21217271910E+01 -0.55037578252E+01 -0.39293246151E+01  0.70875008573E+01  0.00000000000E+00 0.  1.
         12    1    3    3    0    0 -0.94292578351E+02  0.19274272327E+03 -0.64787781463E+03  0.68248553860E+03  0.00000000000E+00 0. -1.
        -13    1    5    5    0    0 -0.14403222362E+02  0.18598803129E+01 -0.16908122907E+02  0.22288934237E+02  0.00000000000E+00 0.  1.
         14    1    5    5    0    0  0.94986286358E+02  0.22623201869E+02 -0.25717911484E+02  0.10097333722E+03  0.00000000000E+00 0. -1.
          5    1    4    4  501    0 -0.26672809543E+02  0.80078835988E+02  0.63154968748E+03  0.63718220039E+03  0.47000000000E+01 0.  1.
         -5    1    4    4    0  501 -0.81423985954E+02 -0.92566398005E+01  0.27346640591E+03  0.28551972967E+03  0.47000000000E+01 0.  1.
          1    1    1    2  502    0  0.95541047957E+02 -0.30553574982E+03 -0.16431632801E+04  0.16740566750E+04  0.00000000000E+00 0. -1.
          1    1    1    2  503    0  0.24143534704E+02  0.22991506001E+02  0.15130221430E+03  0.15493185492E+03  0.00000000000E+00 0. -1.
<mgrwt>
<rscale>  0 0.94746596E+02</rscale>
<asrwt>0</asrwt>
<pdfrwt beam="1">  1        2 0.16788586E+00 0.33339460E+02</pdfrwt>
<pdfrwt beam="2">  1        2 0.35630911E+00 0.26925803E+03</pdfrwt>
<totfact> 0.20650002E+01</totfact>
</mgrwt>
</event>
<event>
13    1  0.2101801E-008  0.9471920E+02  0.7546771E-02  0.1337022E+00
          2   -1    0    0  502    0  0.00000000000E+00  0.00000000000E+00  0.26148888508E+04  0.26148888508E+04  0.00000000000E+00 0. -1.
          2   -1    0    0  503    0 -0.00000000000E+00 -0.00000000000E+00 -0.25973997867E+04  0.25973997867E+04  0.00000000000E+00 0. -1.
         24    2    1    2    0    0  0.48806112357E+02 -0.55424256717E+01 -0.58866328057E+03  0.59626739092E+03  0.81225540941E+02 0.  0.
         25    2    1    2    0    0  0.76821808660E+02 -0.20103112516E+03  0.13181929906E+04  0.13414874065E+04  0.12506237536E+03 0.  0.
         24    2    1    2    0    0 -0.70657370603E+02  0.13791446044E+03  0.24546724635E+03  0.30155876846E+03  0.81674104736E+02 0.  0.
        -11    1    5    5    0    0 -0.72202704300E+02  0.54562807927E+02  0.10937005807E+03  0.14195823372E+03  0.00000000000E+00 0.  1.
         12    1    5    5    0    0  0.15453336965E+01  0.83351652515E+02  0.13609718828E+03  0.15960053475E+03  0.00000000000E+00 0. -1.
        -13    1    3    3    0    0  0.60502115099E+02 -0.29626006521E+02 -0.45370940312E+03  0.45868336429E+03  0.00000000000E+00 0.  1.
         14    1    3    3    0    0 -0.11696002742E+02  0.24083580850E+02 -0.13495387744E+03  0.13758402663E+03  0.00000000000E+00 0. -1.
          5    1    4    4  501    0  0.24262049765E+01 -0.13233349064E+03  0.50811695837E+03  0.52509329894E+03  0.47000000000E+01 0.  1.
         -5    1    4    4    0  501  0.74395603683E+02 -0.68697634522E+02  0.81007603222E+03  0.81639410753E+03  0.47000000000E+01 0.  1.
          1    1    1    2  502    0  0.63012963520E+02 -0.20396222753E+00  0.10043709806E+04  0.10063457367E+04  0.00000000000E+00 0. -1.
          1    1    1    2  503    0 -0.11798351393E+03  0.68863052615E+02 -0.19618788728E+04  0.19666293350E+04  0.00000000000E+00 0. -1.
<mgrwt>
<rscale>  0 0.77256513E+02</rscale>
<asrwt>0</asrwt>
<pdfrwt beam="1">  1        2 0.38454248E+00 0.63013294E+02</pdfrwt>
<pdfrwt beam="2">  1        2 0.38197056E+00 0.94719201E+02</pdfrwt>
<totfact> 0.35787376E+00</totfact>
</mgrwt>
</event>
<event>
13    1  0.2101801E-008  0.1863539E+03  0.7546771E-02  0.1261976E+00
          2   -1    0    0  503    0  0.00000000000E+00  0.00000000000E+00  0.12685195339E+04  0.12685195339E+04  0.00000000000E+00 0. -1.
         -1   -1    0    0    0  501 -0.00000000000E+00 -0.00000000000E+00 -0.13031931265E+04  0.13031931265E+04  0.00000000000E+00 0.  1.
         24    2    1    2    0    0 -0.15867387702E+01  0.43649969347E+02 -0.10734592809E+03  0.13859441611E+03  0.76009383206E+02 0.  0.
         25    2    1    2    0    0  0.31058055037E+02 -0.84984656799E+01  0.52934355450E+02  0.13951037205E+03  0.12499708485E+03 0.  0.
         24    2    1    2    0    0 -0.84884357404E+02 -0.21401126089E+03 -0.63991368405E+03  0.68467877608E+03  0.79305292742E+02 0.  0.
        -11    1    5    5    0    0 -0.29433445473E+02 -0.31509790571E+02 -0.20955557855E+03  0.21394563589E+03  0.00000000000E+00 0.  1.
         12    1    5    5    0    0 -0.55450911931E+02 -0.18250147032E+03 -0.43035810550E+03  0.47073314018E+03  0.00000000000E+00 0. -1.
        -13    1    3    3    0    0  0.37119027233E+02  0.23355027702E+02 -0.50348580747E+02  0.66770196083E+02  0.00000000000E+00 0.  1.
         14    1    3    3    0    0 -0.38705766004E+02  0.20294941646E+02 -0.56997347344E+02  0.71824220028E+02  0.00000000000E+00 0. -1.
          5    1    4    4  502    0  0.23699820654E+02  0.57039604441E+02  0.34344264475E+02  0.70829488747E+02  0.47000000000E+01 0.  1.
         -5    1    4    4    0  502  0.73582343828E+01 -0.65538070121E+02  0.18590090975E+02  0.68680883300E+02  0.47000000000E+01 0.  1.
          1    1    1    2  503    0  0.11182933954E+03  0.14855424811E+03  0.11244598849E+04  0.11397298797E+04  0.00000000000E+00 0. -1.
         -2    1    1    2    0  501 -0.56416298403E+02  0.30305509108E+02 -0.46480822081E+03  0.46919921648E+03  0.00000000000E+00 0.  1.
<mgrwt>
<rscale>  0 0.10924400E+03</rscale>
<asrwt>0</asrwt>
<pdfrwt beam="1">  1        2 0.18654699E+00 0.18635390E+03</pdfrwt>
<pdfrwt beam="2">  1       -1 0.19164605E+00 0.64040789E+02</pdfrwt>
<totfact> 0.49913145E+00</totfact>
</mgrwt>
</event>
<event>
13    1  0.2101801E-008  0.8811854E+02  0.7546771E-02  0.1314354E+00
          2   -1    0    0  503    0  0.00000000000E+00  0.00000000000E+00  0.11130466488E+04  0.11130466488E+04  0.00000000000E+00 0. -1.
         -1   -1    0    0    0  501 -0.00000000000E+00 -0.00000000000E+00 -0.15302153457E+04  0.15302153457E+04  0.00000000000E+00 0.  1.
         24    2    1    2    0    0  0.15170550863E+03  0.47327998152E+02 -0.91278436348E+03  0.92967408988E+03  0.76577532087E+02 0.  0.
         25    2    1    2    0    0  0.33553717197E+01 -0.20679131381E+03 -0.30416475983E+02  0.24356541656E+03  0.12500017659E+03 0.  0.
         24    2    1    2    0    0 -0.61581435862E+02  0.18404932560E+02 -0.10733548190E+03  0.14718096016E+03  0.77526218629E+02 0.  0.
        -13    1    5    5    0    0  0.13211482589E+02  0.21799784131E+02 -0.22148637079E+02  0.33768861171E+02  0.00000000000E+00 0.  1.
         14    1    5    5    0    0 -0.74792918451E+02 -0.33948515703E+01 -0.85186844818E+02  0.11341209899E+03  0.00000000000E+00 0. -1.
        -13    1    3    3    0    0  0.13233229203E+03  0.56624006861E+02 -0.63727602637E+03  0.65332904990E+03  0.00000000000E+00 0.  1.
         14    1    3    3    0    0  0.19373216596E+02 -0.92960087096E+01 -0.27550833712E+03  0.27634503998E+03  0.00000000000E+00 0. -1.
          5    1    4    4  502    0  0.53594560914E+02 -0.17213696049E+03 -0.25712725884E+02  0.18217229317E+03  0.47000000000E+01 0. -1.
         -5    1    4    4    0  502 -0.50239189194E+02 -0.34654353313E+02 -0.47037500993E+01  0.61393123389E+02  0.47000000000E+01 0. -1.
          1    1    1    2  503    0 -0.38607186271E+02  0.79062177030E+02  0.97111609247E+03  0.97509374305E+03  0.00000000000E+00 0. -1.
         -2    1    1    2    0  501 -0.54872258214E+02  0.61996206066E+02 -0.33774846800E+03  0.34774778493E+03  0.00000000000E+00 0.  1.
<mgrwt>
<rscale>  0 0.85413692E+02</rscale>
<asrwt>0</asrwt>
<pdfrwt beam="1">  1        2 0.16368333E+00 0.88118538E+02</pdfrwt>
<pdfrwt beam="2">  1       -1 0.22503167E+00 0.82791873E+02</pdfrwt>
<totfact> 0.37795639E+00</totfact>
</mgrwt>
</event>
<event>
13    1  0.2101801E-008  0.1333364E+03  0.7546771E-02  0.1282248E+00
          2   -1    0    0  503    0  0.00000000000E+00  0.00000000000E+00  0.53392958481E+03  0.53392958481E+03  0.00000000000E+00 0. -1.
         -1   -1    0    0    0  501 -0.00000000000E+00 -0.00000000000E+00 -0.86137298580E+03  0.86137298580E+03  0.00000000000E+00 0.  1.
         24    2    1    2    0    0  0.65532897971E+02 -0.14622155138E+02 -0.25647072818E+03  0.27568859647E+03  0.75621423363E+02 0.  0.
         25    2    1    2    0    0 -0.61218054747E+02 -0.14475599360E+03  0.22134372926E+03  0.29886400831E+03  0.12499880427E+03 0.  0.
         24    2    1    2    0    0 -0.32333521305E+02 -0.64167853581E+02  0.56314607886E+02  0.11998120536E+03  0.77853609709E+02 0.  0.
        -11    1    3    3    0    0  0.72152495027E+02 -0.54899668692E+01 -0.13054344115E+03  0.14925720184E+03  0.00000000000E+00 0.  1.
         12    1    3    3    0    0 -0.66195970561E+01 -0.91321882693E+01 -0.12592728703E+03  0.12643139462E+03  0.00000000000E+00 0. -1.
        -11    1    5    5    0    0  0.56962015690E+01 -0.67391425925E+02  0.32950675688E+02  0.75231629179E+02  0.00000000000E+00 0.  1.
         12    1    5    5    0    0 -0.38029722874E+02  0.32235723445E+01  0.23363932198E+02  0.44749576179E+02  0.00000000000E+00 0. -1.
          5    1    4    4  502    0 -0.97991048729E+02 -0.99301058009E+02  0.13289304279E+03  0.19273192931E+03  0.47000000000E+01 0. -1.
         -5    1    4    4    0  502  0.36772993982E+02 -0.45454935587E+02  0.88450686467E+02  0.10613207900E+03  0.47000000000E+01 0. -1.
          1    1    1    2  503    0  0.64486178129E+02  0.35518954906E+02  0.14974064631E+03  0.16686019443E+03  0.00000000000E+00 0. -1.
         -2    1    1    2    0  501 -0.36467500047E+02  0.18802704741E+03 -0.49837165627E+03  0.53390856604E+03  0.00000000000E+00 0.  1.
<mgrwt>
<rscale>  0 0.99077597E+02</rscale>
<asrwt>0</asrwt>
<pdfrwt beam="1">  1        2 0.78519057E-01 0.73621079E+02</pdfrwt>
<pdfrwt beam="2">  1       -1 0.12667250E+00 0.13333641E+03</pdfrwt>
<totfact> 0.43170390E+01</totfact>
</mgrwt>
</event>
<event>
13    1  0.2101801E-008  0.1165888E+03  0.7546771E-02  0.1335493E+00
         -3   -1    0    0    0  501 -0.00000000000E+00  0.00000000000E+00  0.20644595052E+03  0.20644595052E+03  0.00000000000E+00 0.  1.
          2   -1    0    0  503    0  0.00000000000E+00 -0.00000000000E+00 -0.17627680258E+04  0.17627680258E+04  0.00000000000E+00 0. -1.
         24    2    1    2    0    0 -0.52926414412E+02  0.13465207461E+02 -0.73409372578E+02  0.12084547887E+03  0.78944136113E+02 0.  0.
         25    2    1    2    0    0 -0.85727946530E+02  0.10529870067E+03 -0.12310372477E+04  0.12447949008E+04  0.12499817087E+03 0.  0.
         24    2    1    2    0    0  0.27317617788E+02 -0.16781500118E+02  0.88832325216E+02  0.12128843615E+03  0.76104084995E+02 0.  0.
        -13    1    5    5    0    0  0.39743494244E+02  0.38630279189E+01  0.13428572503E+02  0.42128314456E+02  0.00000000000E+00 0.  1.
         14    1    5    5    0    0 -0.12425876456E+02 -0.20644528037E+02  0.75403752713E+02  0.79160121695E+02  0.00000000000E+00 0. -1.
        -13    1    3    3    0    0 -0.43583164505E+02  0.44477592842E+02 -0.38438434636E+02  0.73179653939E+02  0.00000000000E+00 0.  1.
         14    1    3    3    0    0 -0.93432499073E+01 -0.31012385381E+02 -0.34970937943E+02  0.47665824932E+02  0.00000000000E+00 0. -1.
          5    1    4    4  502    0 -0.55045102746E+02  0.58199532495E+01 -0.77563510169E+03  0.77762184651E+03  0.47000000000E+01 0. -1.
         -5    1    4    4    0  502 -0.30682843784E+02  0.99478747424E+02 -0.45540214600E+03  0.46717305431E+03  0.47000000000E+01 0. -1.
          1    1    1    2  503    0  0.80840619279E+02 -0.60011834710E+02 -0.39474062727E+03  0.40737794350E+03  0.00000000000E+00 0. -1.
         -4    1    1    2    0  501  0.30496123876E+02 -0.41970573307E+02  0.54032847054E+02  0.74907216982E+02  0.00000000000E+00 0.  1.
<mgrwt>
<rscale>  0 0.77772970E+02</rscale>
<asrwt>0</asrwt>
<pdfrwt beam="2">  1        2 0.25923060E+00 0.11658877E+03</pdfrwt>
<pdfrwt beam="1">  1       -3 0.30359698E-01 0.51880079E+02</pdfrwt>
<totfact> 0.68985364E+01</totfact>
</mgrwt>
</event>
<event>
13    1  0.2101801E-008  0.1053240E+03  0.7546771E-02  0.1318756E+00
          2   -1    0    0  502    0  0.00000000000E+00  0.00000000000E+00  0.23682231840E+04  0.23682231840E+04  0.00000000000E+00 0. -1.
          2   -1    0    0  503    0 -0.00000000000E+00 -0.00000000000E+00 -0.12142209298E+04  0.12142209298E+04  0.00000000000E+00 0. -1.
         24    2    1    2    0    0 -0.81366573628E+02  0.38103776061E+02 -0.11468096231E+03  0.17865767464E+03  0.10341385080E+03 0.  0.
         25    2    1    2    0    0 -0.15185442907E+03 -0.29330107504E+02  0.42131513889E+03  0.46588781166E+03  0.12499993584E+03 0.  0.
         24    2    1    2    0    0  0.90255848799E+02  0.84944168856E+02  0.22873926295E+03  0.27217269916E+03  0.79966853668E+02 0.  0.
        -13    1    3    3    0    0 -0.92127704746E+02 -0.52427573689E+01 -0.74932283045E+02  0.11886903520E+03  0.00000000000E+00 0.  1.
         14    1    3    3    0    0  0.10761131118E+02  0.43346533429E+02 -0.39748679262E+02  0.59788639442E+02  0.00000000000E+00 0. -1.
        -13    1    5    5    0    0 -0.31717440281E+01 -0.16197306468E+01  0.63228167842E+02  0.63328387759E+02  0.00000000000E+00 0.  1.
         14    1    5    5    0    0  0.93427592827E+02  0.86563899503E+02  0.16551109511E+03  0.20884431140E+03  0.00000000000E+00 0. -1.
          5    1    4    4  501    0 -0.63247475766E+02 -0.74268785297E+02  0.23945584937E+03  0.25860643739E+03  0.47000000000E+01 0.  1.
         -5    1    4    4    0  501 -0.88606953309E+02  0.44938677793E+02  0.18185928952E+03  0.20728137427E+03  0.47000000000E+01 0.  1.
          1    1    1    2  502    0  0.84399214803E+02 -0.62044417455E+02  0.16394212454E+04  0.16427643644E+04  0.00000000000E+00 0. -1.
          1    1    1    2  503    0  0.58565939101E+02 -0.31673419958E+02 -0.10207924306E+04  0.10229615639E+04  0.00000000000E+00 0. -1.
<mgrwt>
<rscale>  0 0.83741810E+02</rscale>
<asrwt>0</asrwt>
<pdfrwt beam="1">  1        2 0.34826811E+00 0.10532398E+03</pdfrwt>
<pdfrwt beam="2">  1        2 0.17856190E+00 0.66582090E+02</pdfrwt>
<totfact> 0.21580027E+01</totfact>
</mgrwt>
</event>
<event>
13    1  0.2101801E-008  0.9968412E+02  0.7546771E-02  0.1366712E+00
          2   -1    0    0  503    0  0.00000000000E+00  0.00000000000E+00  0.24101999738E+04  0.24101999738E+04  0.00000000000E+00 0. -1.
          2   -1    0    0  502    0 -0.00000000000E+00 -0.00000000000E+00 -0.10247952867E+04  0.10247952867E+04  0.00000000000E+00 0. -1.
         24    2    1    2    0    0 -0.77808318119E+02 -0.36089571486E+02 -0.37244004768E+02  0.12313261182E+03  0.80112000752E+02 0.  0.
         25    2    1    2    0    0  0.10085130093E+03 -0.54499211477E+02 -0.87484212149E+01  0.16983136326E+03  0.12500003249E+03 0.  0.
         24    2    1    2    0    0 -0.44831118528E+02 -0.88278934202E+02  0.27159764568E+03  0.29984332331E+03  0.79609911327E+02 0.  0.
        -13    1    3    3    0    0  0.52477412174E+01 -0.33442246695E+02 -0.15532338235E+02  0.37244814176E+02  0.00000000000E+00 0.  1.
         14    1    3    3    0    0 -0.83056059336E+02 -0.26473247906E+01 -0.21711666533E+02  0.85887797647E+02  0.00000000000E+00 0. -1.
        -13    1    5    5    0    0  0.41162263902E+01 -0.73995002077E+02  0.13441792522E+03  0.15349391607E+03  0.00000000000E+00 0.  1.
         14    1    5    5    0    0 -0.48947344918E+02 -0.14283932125E+02  0.13717972047E+03  0.14634940724E+03  0.00000000000E+00 0. -1.
          5    1    4    4  501    0  0.93438682600E+02 -0.42109204294E+02 -0.58301089120E+02  0.11800457400E+03  0.47000000000E+01 0.  1.
         -5    1    4    4    0  501  0.74126183271E+01 -0.12390007183E+02  0.49552667905E+02  0.51826789260E+02  0.47000000000E+01 0.  1.
          1    1    1    2  502    0 -0.41357562148E+02  0.21275576073E+02 -0.83694641159E+03  0.83823767152E+03  0.00000000000E+00 0. -1.
          1    1    1    2  503    0  0.63145697869E+02  0.15759214109E+03  0.19967458789E+04  0.20039502906E+04  0.00000000000E+00 0. -1.
<mgrwt>
<rscale>  0 0.68089796E+02</rscale>
<asrwt>0</asrwt>
<pdfrwt beam="1">  1        2 0.35444117E+00 0.99684117E+02</pdfrwt>
<pdfrwt beam="2">  1        2 0.15070519E+00 0.46509118E+02</pdfrwt>
<totfact> 0.26655269E+01</totfact>
</mgrwt>
</event>
<event>
13    1  0.2101801E-008  0.6374556E+02  0.7546771E-02  0.1408334E+00
          2   -1    0    0  502    0  0.00000000000E+00  0.00000000000E+00  0.10517971945E+04  0.10517971945E+04  0.00000000000E+00 0. -1.
          2   -1    0    0  503    0 -0.00000000000E+00 -0.00000000000E+00 -0.14594196243E+04  0.14594196243E+04  0.00000000000E+00 0. -1.
         24    2    1    2    0    0  0.92480960807E+01 -0.47085063199E+02 -0.23108937401E+03  0.25099007761E+03  0.85388464217E+02 0.  0.
         25    2    1    2    0    0 -0.31972679851E+02  0.92842514242E+02  0.46050359943E+03  0.48716642633E+03  0.12500230859E+03 0.  0.
         24    2    1    2    0    0  0.58570867230E+02 -0.18799425468E+02 -0.14192162212E+02  0.10316408156E+03  0.81593169871E+02 0.  0.
        -11    1    5    5    0    0  0.14210480505E+02  0.29433213019E+02 -0.18384214849E+02  0.37499748538E+02  0.00000000000E+00 0.  1.
         12    1    5    5    0    0  0.44360386725E+02 -0.48232638487E+02  0.41920526369E+01  0.65664333021E+02  0.00000000000E+00 0. -1.
        -13    1    3    3    0    0  0.32902193549E+02 -0.52516083886E+02 -0.99794834034E+02  0.11747128290E+03  0.00000000000E+00 0.  1.
         14    1    3    3    0    0 -0.23654097468E+02  0.54310206862E+01 -0.13129453998E+03  0.13351879471E+03  0.00000000000E+00 0. -1.
          5    1    4    4  501    0  0.28937418797E+01 -0.29835928446E+02  0.11170734218E+03  0.11575481271E+03  0.47000000000E+01 0. -1.
         -5    1    4    4    0  501 -0.34866421731E+02  0.12267844269E+03  0.34879625724E+03  0.37141161362E+03  0.47000000000E+01 0. -1.
          1    1    1    2  502    0  0.65776378082E+00 -0.63974043347E+02  0.52097865633E+03  0.52489224726E+03  0.00000000000E+00 0. -1.
          1    1    1    2  503    0 -0.36504047241E+02  0.37016017773E+02 -0.11438231494E+04  0.11450039861E+04  0.00000000000E+00 0. -1.
<mgrwt>
<rscale>  0 0.57567276E+02</rscale>
<asrwt>0</asrwt>
<pdfrwt beam="1">  1        2 0.15467606E+00 0.63745560E+02</pdfrwt>
<pdfrwt beam="2">  1        2 0.21462053E+00 0.51987797E+02</pdfrwt>
<totfact> 0.77196897E+01</totfact>
</mgrwt>
</event>
<event>
13    1  0.2101801E-008  0.1737848E+03  0.7546771E-02  0.1329888E+00
          2   -1    0    0  503    0  0.00000000000E+00  0.00000000000E+00  0.12084269942E+04  0.12084269942E+04  0.00000000000E+00 0. -1.
          2   -1    0    0  502    0 -0.00000000000E+00 -0.00000000000E+00 -0.65583070314E+03  0.65583070314E+03  0.00000000000E+00 0. -1.
         24    2    1    2    0    0 -0.15059167404E+03 -0.13344940365E+03 -0.64453073881E+02  0.22580322896E+03  0.79663692170E+02 0.  0.
         25    2    1    2    0    0  0.42326763073E+02 -0.10083710231E+03  0.33951386168E+03  0.37795878898E+03  0.12499403114E+03 0.  0.
         24    2    1    2    0    0  0.19932510999E+02  0.11593084741E+03 -0.23365293831E+02  0.14575021638E+03  0.82824647568E+02 0.  0.
        -11    1    5    5    0    0 -0.11810115876E+02  0.15177058732E+02 -0.34532154985E+02  0.39525835559E+02  0.00000000000E+00 0.  1.
         12    1    5    5    0    0  0.31742626875E+02  0.10075378868E+03  0.11166861154E+02  0.10622438082E+03  0.00000000000E+00 0. -1.
        -13    1    3    3    0    0 -0.19227522563E+02 -0.37456722334E+02 -0.45519291425E+02  0.62005722025E+02  0.00000000000E+00 0.  1.
         14    1    3    3    0    0 -0.13136415147E+03 -0.95992681320E+02 -0.18933782456E+02  0.16379750693E+03  0.00000000000E+00 0. -1.
          5    1    4    4  501    0  0.10229607818E+02 -0.18035978202E+02 -0.52589022016E+01  0.21901767924E+02  0.47000000000E+01 0.  1.
         -5    1    4    4    0  501  0.32097155255E+02 -0.82801124112E+02  0.34477276388E+03  0.35605702106E+03  0.47000000000E+01 0.  1.
          1    1    1    2  502    0  0.12481642189E+03  0.12066386320E+03 -0.38789916545E+03  0.42497608122E+03  0.00000000000E+00 0. -1.
          1    1    1    2  503    0 -0.36484021926E+02 -0.23082046345E+01  0.68879996256E+03  0.68976938181E+03  0.00000000000E+00 0. -1.
<mgrwt>
<rscale>  0 0.79705981E+02</rscale>
<asrwt>0</asrwt>
<pdfrwt beam="1">  1        2 0.17770985E+00 0.36556965E+02</pdfrwt>
<pdfrwt beam="2">  1        2 0.96445692E-01 0.17378476E+03</pdfrwt>
<totfact> 0.18123505E+02</totfact>
</mgrwt>
</event>
<event>
13    1  0.2101801E-008  0.1328351E+03  0.7546771E-02  0.1231673E+00
          2   -1    0    0  503    0  0.00000000000E+00  0.00000000000E+00  0.77851145842E+03  0.77851145842E+03  0.00000000000E+00 0. -1.
          2   -1    0    0  502    0 -0.00000000000E+00 -0.00000000000E+00 -0.10418306971E+04  0.10418306971E+04  0.00000000000E+00 0. -1.
         24    2    1    2    0    0 -0.41436793728E+02 -0.11440339187E+03 -0.26786141120E+02  0.14072464125E+03  0.65427695625E+02 0.  0.
         25    2    1    2    0    0  0.41408597735E+02 -0.15638925708E+02  0.22292441639E+03  0.25938241313E+03  0.12499877141E+03 0.  0.
         24    2    1    2    0    0 -0.15297724353E+02  0.12991485310E+03 -0.79305638798E+02  0.17285442554E+03  0.80482163584E+02 0.  0.
        -11    1    3    3    0    0 -0.34167521452E+02 -0.64619784531E+02  0.15828515984E+02  0.74790895123E+02  0.00000000000E+00 0.  1.
         12    1    3    3    0    0 -0.72692722764E+01 -0.49783607334E+02 -0.42614657104E+02  0.65933746130E+02  0.00000000000E+00 0. -1.
        -13    1    5    5    0    0 -0.13478500053E+01  0.13717229216E+03 -0.65881585835E+02  0.15217896632E+03  0.00000000000E+00 0.  1.
         14    1    5    5    0    0 -0.13949874348E+02 -0.72574390599E+01 -0.13424052963E+02  0.20675459220E+02  0.00000000000E+00 0. -1.
          5    1    4    4  501    0  0.24702276633E+02  0.54664716171E+02  0.98950884189E+02  0.11580933100E+03  0.47000000000E+01 0. -1.
         -5    1    4    4    0  501  0.16706321103E+02 -0.70303641879E+02  0.12397353220E+03  0.14357308213E+03  0.47000000000E+01 0. -1.
          1    1    1    2  502    0  0.13711542915E+03  0.17693654165E+01 -0.79925721726E+03  0.81093518293E+03  0.00000000000E+00 0. -1.
          1    1    1    2  503    0 -0.12178950880E+03 -0.16419009458E+01  0.41910534211E+03  0.43644549268E+03  0.00000000000E+00 0. -1.
<mgrwt>
<rscale>  0 0.12719826E+03</rscale>
<asrwt>0</asrwt>
<pdfrwt beam="1">  1        2 0.11448698E+00 0.12180058E+03</pdfrwt>
<pdfrwt beam="2">  1        2 0.15321040E+00 0.13283514E+03</pdfrwt>
<totfact> 0.17050383E+02</totfact>
</mgrwt>
</event>
<event>
13    1  0.2101801E-008  0.5517708E+02  0.7546771E-02  0.1472576E+00
          2   -1    0    0  503    0  0.00000000000E+00  0.00000000000E+00  0.24602776675E+04  0.24602776675E+04  0.00000000000E+00 0. -1.
          2   -1    0    0  502    0 -0.00000000000E+00 -0.00000000000E+00 -0.18872951746E+03  0.18872951746E+03  0.00000000000E+00 0. -1.
         24    2    1    2    0    0  0.25222241715E+02  0.20685377269E+02 -0.34063087585E+02  0.92305237605E+02  0.79346812435E+02 0.  0.
         25    2    1    2    0    0  0.75342245756E+02  0.76304561265E+02  0.11237673463E+04  0.11357711827E+04  0.12499716275E+03 0.  0.
         24    2    1    2    0    0 -0.41215396217E+02 -0.47815915301E+02  0.38544652352E+02  0.10821319603E+03  0.78989460876E+02 0.  0.
        -11    1    5    5    0    0 -0.28234034426E+02 -0.69214693808E+02  0.36256133670E+02  0.83080333218E+02  0.00000000000E+00 0.  1.
         12    1    5    5    0    0 -0.12981361791E+02  0.21398778507E+02  0.22885186825E+01  0.25132862816E+02  0.00000000000E+00 0. -1.
        -11    1    3    3    0    0 -0.15339450108E+02  0.37423472429E+02 -0.24848693302E+02  0.47468648360E+02  0.00000000000E+00 0.  1.
         12    1    3    3    0    0  0.40561691823E+02 -0.16738095160E+02 -0.92143942834E+01  0.44836589245E+02  0.00000000000E+00 0. -1.
          5    1    4    4  501    0  0.92750845670E+02  0.98777716143E+02  0.95149660002E+03  0.96110749993E+03  0.47000000000E+01 0.  1.
         -5    1    4    4    0  501 -0.17408599914E+02 -0.22473154878E+02  0.17227074633E+03  0.17466368278E+03  0.47000000000E+01 0.  1.
          1    1    1    2  502    0 -0.53650997412E+02 -0.12448558221E+02 -0.75443478530E+02  0.93408321781E+02  0.00000000000E+00 0. -1.
          1    1    1    2  503    0 -0.56980938413E+01 -0.36725465012E+02  0.12187427174E+04  0.12193092468E+04  0.00000000000E+00 0. -1.
<mgrwt>
<rscale>  0 0.45284095E+02</rscale>
<asrwt>0</asrwt>
<pdfrwt beam="1">  1        2 0.36180552E+00 0.37164877E+02</pdfrwt>
<pdfrwt beam="2">  1        2 0.27754342E-01 0.55177077E+02</pdfrwt>
<totfact> 0.17805974E+02</totfact>
</mgrwt>
</event>
<event>
13    1  0.2101801E-008  0.1378415E+03  0.7546771E-02  0.1354064E+00
          2   -1    0    0  502    0  0.00000000000E+00  0.00000000000E+00  0.23172000818E+04  0.23172000818E+04  0.00000000000E+00 0. -1.
          2   -1    0    0  503    0 -0.00000000000E+00 -0.00000000000E+00 -0.24479881466E+04  0.24479881466E+04  0.00000000000E+00 0. -1.
         24    2    1    2    0    0 -0.19336434927E+03 -0.23679017588E+01 -0.98657669622E+03  0.10086474063E+04  0.81490086936E+02 0.  0.
         25    2    1    2    0    0 -0.46673682727E+02  0.12253846903E+03  0.52555035171E+03  0.55589730249E+03  0.12499811874E+03 0.  0.
         24    2    1    2    0    0 -0.29894119377E+02 -0.61884119585E+01 -0.17206905013E+03  0.19193578986E+03  0.79370237492E+02 0.  0.
        -11    1    5    5    0    0 -0.33929576515E+02  0.26374125158E+02 -0.51976850618E+02  0.67441853775E+02  0.00000000000E+00 0.  1.
         12    1    5    5    0    0  0.40354571383E+01 -0.32562537117E+02 -0.12009219951E+03  0.12449393608E+03  0.00000000000E+00 0. -1.
        -13    1    3    3    0    0 -0.84218892656E+02  0.14122202852E+02 -0.25822592503E+03  0.27197957065E+03  0.00000000000E+00 0.  1.
         14    1    3    3    0    0 -0.10914545662E+03 -0.16490104611E+02 -0.72835077119E+03  0.73666783569E+03  0.00000000000E+00 0. -1.
          5    1    4    4  501    0  0.26315214881E+02  0.10159173051E+03  0.30969006730E+03  0.32702201459E+03  0.47000000000E+01 0. -1.
         -5    1    4    4    0  501 -0.72988897608E+02  0.20946738525E+02  0.21586028440E+03  0.22887528790E+03  0.47000000000E+01 0. -1.
          1    1    1    2  502    0  0.30821653536E+02  0.21191370081E+02  0.17402535452E+04  0.17406554656E+04  0.00000000000E+00 0. -1.
          1    1    1    2  503    0  0.23911049784E+03 -0.13517352540E+03 -0.12379462153E+04  0.12680522640E+04  0.00000000000E+00 0. -1.
<mgrwt>
<rscale>  0 0.71803934E+02</rscale>
<asrwt>0</asrwt>
<pdfrwt beam="1">  1        2 0.34076472E+00 0.37403857E+02</pdfrwt>
<pdfrwt beam="2">  1        2 0.35999826E+00 0.13784153E+03</pdfrwt>
<totfact> 0.60548272E+00</totfact>
</mgrwt>
</event>
<event>
13    1  0.2101801E-008  0.3002706E+02  0.7546771E-02  0.1628859E+00
          2   -1    0    0  502    0  0.00000000000E+00  0.00000000000E+00  0.65802211636E+03  0.65802211636E+03  0.00000000000E+00 0. -1.
          2   -1    0    0  503    0 -0.00000000000E+00 -0.00000000000E+00 -0.92821531390E+03  0.92821531390E+03  0.00000000000E+00 0. -1.
         24    2    1    2    0    0 -0.29123545604E+02 -0.11821217092E+03 -0.62026816357E+03  0.63648127267E+03  0.74521925982E+02 0.  0.
         25    2    1    2    0    0 -0.88448253456E+02  0.17081031701E+03 -0.91067914102E+02  0.24681423051E+03  0.12499856585E+03 0.  0.
         24    2    1    2    0    0  0.72266518317E+02 -0.21534136319E+02 -0.33135912445E+02  0.11614195219E+03  0.81882816681E+02 0.  0.
        -11    1    3    3    0    0 -0.30854383210E+02 -0.71586069895E+01 -0.13932563141E+03  0.14288061515E+03  0.00000000000E+00 0.  1.
         12    1    3    3    0    0  0.17308376053E+01 -0.11105356393E+03 -0.48094253216E+03  0.49360065752E+03  0.00000000000E+00 0. -1.
        -13    1    5    5    0    0  0.60693810088E+02 -0.32077146628E+02  0.10806325124E+02  0.69494306108E+02  0.00000000000E+00 0.  1.
         14    1    5    5    0    0  0.11572708229E+02  0.10543010309E+02 -0.43942237569E+02  0.46647646079E+02  0.00000000000E+00 0. -1.
          5    1    4    4  501    0 -0.11517555656E+02  0.36097732386E+02  0.31142465199E+02  0.49271122479E+02  0.47000000000E+01 0.  1.
         -5    1    4    4    0  501 -0.76930697800E+02  0.13471258462E+03 -0.12221037930E+03  0.19754310803E+03  0.47000000000E+01 0.  1.
          1    1    1    2  502    0  0.25504265368E+02 -0.15824878149E+02  0.52731721766E+03  0.52817075114E+03  0.00000000000E+00 0. -1.
          1    1    1    2  503    0  0.19801015375E+02 -0.15239131625E+02 -0.53038425081E+02  0.58629223751E+02  0.00000000000E+00 0. -1.
<mgrwt>
<rscale>  0 0.27390927E+02</rscale>
<asrwt>0</asrwt>
<pdfrwt beam="1">  1        2 0.96767959E-01 0.30027063E+02</pdfrwt>
<pdfrwt beam="2">  1        2 0.13650225E+00 0.24986223E+02</pdfrwt>
<totfact> 0.26984891E+02</totfact>
</mgrwt>
</event>
<event>
13    1  0.2101801E-008  0.7664557E+02  0.7546771E-02  0.1397596E+00
          2   -1    0    0  502    0  0.00000000000E+00  0.00000000000E+00  0.23774517779E+04  0.23774517779E+04  0.00000000000E+00 0. -1.
          2   -1    0    0  503    0 -0.00000000000E+00 -0.00000000000E+00 -0.19648371293E+04  0.19648371293E+04  0.00000000000E+00 0. -1.
         24    2    1    2    0    0 -0.47670430283E+02 -0.12602666598E+03 -0.38423719252E+03  0.41499509768E+03  0.80171818704E+02 0.  0.
         25    2    1    2    0    0 -0.58077196077E+02  0.22345050966E+03 -0.19128922776E+03  0.32483813631E+03  0.12500062068E+03 0.  0.
         24    2    1    2    0    0  0.43422855249E+02 -0.80205765786E+01 -0.50280797521E+03  0.51115266218E+03  0.80692689351E+02 0.  0.
        -11    1    5    5    0    0  0.20350361004E+02  0.35819975919E+02 -0.18715217312E+03  0.19163283584E+03  0.00000000000E+00 0.  1.
         12    1    5    5    0    0  0.23072494245E+02 -0.43840552497E+02 -0.31565580209E+03  0.31951982634E+03  0.00000000000E+00 0. -1.
        -13    1    3    3    0    0  0.93194685289E+01 -0.95604344981E+01 -0.50880615984E+01  0.14287854013E+02  0.00000000000E+00 0.  1.
         14    1    3    3    0    0 -0.56989898812E+02 -0.11646623148E+03 -0.37914913092E+03  0.40070724366E+03  0.00000000000E+00 0. -1.
          5    1    4    4  501    0 -0.39589939212E+02  0.23616707330E+03 -0.17188306929E+03  0.29480184753E+03  0.47000000000E+01 0.  1.
         -5    1    4    4    0  501 -0.18487256865E+02 -0.12716563636E+02 -0.19406158475E+02  0.30036288783E+02  0.47000000000E+01 0.  1.
          1    1    1    2  502    0 -0.92236087762E+00 -0.47048535074E+02  0.22890733967E+04  0.22895570381E+04  0.00000000000E+00 0. -1.
          1    1    1    2  503    0  0.63247131988E+02 -0.42354732027E+02 -0.79812435250E+03  0.80174597291E+03  0.00000000000E+00 0. -1.
<mgrwt>
<rscale>  0 0.60056264E+02</rscale>
<asrwt>0</asrwt>
<pdfrwt beam="1">  1        2 0.34962526E+00 0.47057575E+02</pdfrwt>
<pdfrwt beam="2">  1        2 0.28894663E+00 0.76645573E+02</pdfrwt>
<totfact> 0.10102064E+01</totfact>
</mgrwt>
</event>
<event>
13    1  0.2101801E-008  0.7126330E+02  0.7546771E-02  0.1378295E+00
          2   -1    0    0  502    0  0.00000000000E+00  0.00000000000E+00  0.24929069153E+04  0.24929069153E+04  0.00000000000E+00 0. -1.
          2   -1    0    0  503    0 -0.00000000000E+00 -0.00000000000E+00 -0.18606591057E+04  0.18606591057E+04  0.00000000000E+00 0. -1.
         24    2    1    2    0    0  0.10170453686E+03  0.26481776883E+02 -0.69736667547E+03  0.70988698469E+03  0.81081154705E+02 0.  0.
         25    2    1    2    0    0 -0.17715321449E+03 -0.11974469863E+03 -0.34147372446E+02  0.25002949754E+03  0.12500660919E+03 0.  0.
         24    2    1    2    0    0 -0.35823781792E+02  0.33355404469E+02  0.25287997810E+02  0.98304183453E+02  0.81414392475E+02 0.  0.
        -11    1    3    3    0    0  0.51638161554E+02 -0.17713252944E+02 -0.17631602360E+03  0.18457410229E+03  0.00000000000E+00 0.  1.
         12    1    3    3    0    0  0.50066375305E+02  0.44195029827E+02 -0.52105065187E+03  0.52531288239E+03  0.00000000000E+00 0. -1.
        -11    1    5    5    0    0 -0.48736242651E+02  0.48844366568E+02  0.42019098125E+01  0.69127776900E+02  0.00000000000E+00 0.  1.
         12    1    5    5    0    0  0.12912460858E+02 -0.15488962099E+02  0.21086087997E+02  0.29176406553E+02  0.00000000000E+00 0. -1.
          5    1    4    4  501    0 -0.13402350591E+03 -0.37922554933E+02  0.22933639971E+02  0.14123902488E+03  0.47000000000E+01 0. -1.
         -5    1    4    4    0  501 -0.43129708582E+02 -0.81822143702E+02 -0.57081012417E+02  0.10879047266E+03  0.47000000000E+01 0. -1.
          1    1    1    2  502    0  0.57521946753E+02  0.13699397193E+02  0.23152478675E+04  0.23160028359E+04  0.00000000000E+00 0. -1.
          1    1    1    2  503    0  0.53750512669E+02  0.46208120090E+02 -0.97677400786E+03  0.97934251945E+03  0.00000000000E+00 0. -1.
<mgrwt>
<rscale>  0 0.64914204E+02</rscale>
<asrwt>0</asrwt>
<pdfrwt beam="1">  1        2 0.36660396E+00 0.59130769E+02</pdfrwt>
<pdfrwt beam="2">  1        2 0.27362634E+00 0.71263303E+02</pdfrwt>
<totfact> 0.97313677E+00</totfact>
</mgrwt>
</event>
<event>
13    1  0.2101801E-008  0.7677659E+02  0.7546771E-02  0.1373323E+00
          2   -1    0    0  502    0  0.00000000000E+00  0.00000000000E+00  0.12550231205E+04  0.12550231205E+04  0.00000000000E+00 0. -1.
          2   -1    0    0  503    0 -0.00000000000E+00 -0.00000000000E+00 -0.29473620214E+04  0.29473620214E+04  0.00000000000E+00 0. -1.
         24    2    1    2    0    0 -0.25441453659E+02  0.56198657517E+02 -0.36786713217E+03  0.38034279508E+03  0.74356292015E+02 0.  0.
         25    2    1    2    0    0 -0.89553709006E+02 -0.46503557472E+02  0.19483590903E+02  0.16182292094E+03  0.12499839908E+03 0.  0.
         24    2    1    2    0    0 -0.10828856768E+02  0.79821183013E+02 -0.18901381429E+03  0.22072104953E+03  0.80640401273E+02 0.  0.
        -13    1    3    3    0    0 -0.10227728979E+02 -0.15850234813E+02 -0.38870824508E+02  0.43206219247E+02  0.00000000000E+00 0.  1.
         14    1    3    3    0    0 -0.15213724680E+02  0.72048892330E+02 -0.32899630767E+03  0.33713657583E+03  0.00000000000E+00 0. -1.
        -13    1    5    5    0    0 -0.32357696160E+02  0.64616875112E+01 -0.88386092502E+02  0.94344450044E+02  0.00000000000E+00 0.  1.
         14    1    5    5    0    0  0.21528839392E+02  0.73359495502E+02 -0.10062772178E+03  0.12637659948E+03  0.00000000000E+00 0. -1.
          5    1    4    4  501    0 -0.75096811405E+02 -0.84887045549E+02 -0.54995859428E+01  0.11356794015E+03  0.47000000000E+01 0. -1.
         -5    1    4    4    0  501 -0.14456897601E+02  0.38383488077E+02  0.24983176846E+02  0.48254980784E+02  0.47000000000E+01 0. -1.
          1    1    1    2  502    0  0.43517900040E+02 -0.37075419052E+02  0.11405256116E+04  0.11419575584E+04  0.00000000000E+00 0. -1.
          1    1    1    2  503    0  0.82306119393E+02 -0.52440864007E+02 -0.22954671569E+04  0.22975408179E+04  0.00000000000E+00 0. -1.
<mgrwt>
<rscale>  0 0.66251854E+02</rscale>
<asrwt>0</asrwt>
<pdfrwt beam="1">  1        2 0.18456223E+00 0.57169873E+02</pdfrwt>
<pdfrwt beam="2">  1        2 0.43343558E+00 0.76776594E+02</pdfrwt>
<totfact> 0.11063815E+01</totfact>
</mgrwt>
</event>
<event>
13    1  0.2101801E-008  0.3509825E+02  0.7546771E-02  0.1580349E+00
         -1   -1    0    0    0  501 -0.00000000000E+00  0.00000000000E+00  0.23309842280E+03  0.23309842280E+03  0.00000000000E+00 0.  1.
          2   -1    0    0  503    0  0.00000000000E+00 -0.00000000000E+00 -0.35343514238E+04  0.35343514238E+04  0.00000000000E+00 0. -1.
         24    2    1    2    0    0 -0.86982470908E+02 -0.41832388880E+02 -0.51466287423E+02  0.13541680071E+03  0.79831273129E+02 0.  0.
         25    2    1    2    0    0  0.15761169828E+03  0.91523939819E+02 -0.21248975661E+04  0.21363596017E+04  0.12499841004E+03 0.  0.
         24    2    1    2    0    0 -0.12162067137E+03 -0.13422136201E+02 -0.13162545280E+03  0.19690759826E+03  0.80471118945E+02 0.  0.
        -11    1    5    5    0    0 -0.70292143557E+02  0.66322214412E+01 -0.21568978237E+02  0.73825419940E+02  0.00000000000E+00 0.  1.
         12    1    5    5    0    0 -0.51328527812E+02 -0.20054357642E+02 -0.11005647456E+03  0.12308217832E+03  0.00000000000E+00 0. -1.
        -13    1    3    3    0    0 -0.61040735567E+01  0.12261648161E+02 -0.33873777456E+02  0.36538206424E+02  0.00000000000E+00 0.  1.
         14    1    3    3    0    0 -0.80878397351E+02 -0.54094037041E+02 -0.17592509968E+02  0.98878594288E+02  0.00000000000E+00 0. -1.
          5    1    4    4  502    0  0.18866287449E+02 -0.27426665327E+02 -0.51943865886E+03  0.52052547401E+03  0.47000000000E+01 0.  1.
         -5    1    4    4    0  502  0.13874541084E+03  0.11895060515E+03 -0.16054589073E+04  0.16158341277E+04  0.47000000000E+01 0.  1.
          1    1    1    2  503    0  0.26157425989E+02 -0.11498830343E+02 -0.11438204119E+04  0.11441772453E+04  0.00000000000E+00 0. -1.
         -2    1    1    2    0  501  0.24834018004E+02 -0.24770584395E+02  0.15055671726E+03  0.15458860053E+03  0.00000000000E+00 0.  1.
<mgrwt>
<rscale>  0 0.31668172E+02</rscale>
<asrwt>0</asrwt>
<pdfrwt beam="2">  1        2 0.51975756E+00 0.28573310E+02</pdfrwt>
<pdfrwt beam="1">  1       -1 0.34279180E-01 0.35098248E+02</pdfrwt>
<totfact> 0.16863661E+01</totfact>
</mgrwt>
</event>
<event>
13    1  0.2101801E-008  0.8918272E+02  0.7546771E-02  0.1479546E+00
          2   -1    0    0  503    0  0.00000000000E+00  0.00000000000E+00  0.56321604319E+03  0.56321604319E+03  0.00000000000E+00 0. -1.
          2   -1    0    0  502    0 -0.00000000000E+00 -0.00000000000E+00 -0.37684483116E+04  0.37684483116E+04  0.00000000000E+00 0. -1.
         24    2    1    2    0    0 -0.38444075322E+02  0.36377538314E+01 -0.39045384681E+03  0.40070876007E+03  0.81376432279E+02 0.  0.
         25    2    1    2    0    0  0.16440100655E+03 -0.18621673051E+03  0.75951689761E+01  0.27818382128E+03  0.12499676057E+03 0.  0.
         24    2    1    2    0    0 -0.82097167730E+02  0.80621789555E+02 -0.94550926365E+02  0.16929106127E+03  0.80497005222E+02 0.  0.
        -11    1    5    5    0    0 -0.91323262021E+02  0.89013820506E+02 -0.82112559289E+02  0.15167686317E+03  0.00000000000E+00 0.  1.
         12    1    5    5    0    0  0.92260942907E+01 -0.83920309514E+01 -0.12438367075E+02  0.17614198104E+02  0.00000000000E+00 0. -1.
        -11    1    3    3    0    0 -0.49197490650E+02  0.27521130841E+02 -0.33064380752E+03  0.33541486726E+03  0.00000000000E+00 0.  1.
         12    1    3    3    0    0  0.10753415328E+02 -0.23883377010E+02 -0.59810039292E+02  0.65293892813E+02  0.00000000000E+00 0. -1.
          5    1    4    4  501    0  0.30592941838E+02 -0.10030403691E+03 -0.39685819594E+02  0.11222246739E+03  0.47000000000E+01 0.  1.
         -5    1    4    4    0  501  0.13380806471E+03 -0.85912693600E+02  0.47280988570E+02  0.16596135388E+03  0.47000000000E+01 0.  1.
          1    1    1    2  502    0 -0.35167939096E+02  0.81874091741E+02 -0.31046950545E+04  0.31059735241E+04  0.00000000000E+00 0. -1.
          1    1    1    2  503    0 -0.86918243986E+01  0.20083095384E+02  0.37687239026E+03  0.37750718811E+03  0.00000000000E+00 0. -1.
<mgrwt>
<rscale>  0 0.44177049E+02</rscale>
<asrwt>0</asrwt>
<pdfrwt beam="1">  1        2 0.82825889E-01 0.21883293E+02</pdfrwt>
<pdfrwt beam="2">  1        2 0.55418358E+00 0.89182720E+02</pdfrwt>
<totfact> 0.98941312E+00</totfact>
</mgrwt>
</event>
<event>
13    1  0.2101801E-008  0.6443272E+02  0.7546771E-02  0.1432247E+00
          2   -1    0    0  503    0  0.00000000000E+00  0.00000000000E+00  0.11090311396E+04  0.11090311396E+04  0.00000000000E+00 0. -1.
          2   -1    0    0  502    0 -0.00000000000E+00 -0.00000000000E+00 -0.13575506998E+04  0.13575506998E+04  0.00000000000E+00 0. -1.
         24    2    1    2    0    0 -0.16781660335E+03  0.17245374374E+03 -0.44421276459E+03  0.51172033920E+03  0.81424930051E+02 0.  0.
         25    2    1    2    0    0  0.47021491971E+02 -0.72390813903E+02  0.20046500328E+03  0.25152251547E+03  0.12500363036E+03 0.  0.
         24    2    1    2    0    0  0.53385765357E+02 -0.26619033310E+02 -0.30602472955E+02  0.10460417476E+03  0.80292646914E+02 0.  0.
        -11    1    3    3    0    0 -0.50671304149E+02  0.82569111552E+01 -0.72952118105E+02  0.89206329271E+02  0.00000000000E+00 0.  1.
         12    1    3    3    0    0 -0.11714529920E+03  0.16419683258E+03 -0.37126064649E+03  0.42251400993E+03  0.00000000000E+00 0. -1.
        -13    1    5    5    0    0  0.63853279502E+02 -0.42165579777E+02 -0.10695862388E+02  0.77263049987E+02  0.00000000000E+00 0.  1.
         14    1    5    5    0    0 -0.10467514145E+02  0.15546546467E+02 -0.19906610567E+02  0.27341124770E+02  0.00000000000E+00 0. -1.
          5    1    4    4  501    0  0.89339118750E+02 -0.56670135209E+02  0.12955340044E+03  0.16732948314E+03  0.47000000000E+01 0.  1.
         -5    1    4    4    0  501 -0.42317626779E+02 -0.15720678694E+02  0.70911602837E+02  0.84193032323E+02  0.47000000000E+01 0.  1.
          1    1    1    2  502    0  0.27440578760E+02 -0.58146600880E+02 -0.78457238391E+03  0.78720253947E+03  0.00000000000E+00 0. -1.
          1    1    1    2  503    0  0.39968767259E+02 -0.15297295644E+02  0.81040305795E+03  0.81153227043E+03  0.00000000000E+00 0. -1.
<mgrwt>
<rscale>  0 0.52511633E+02</rscale>
<asrwt>0</asrwt>
<pdfrwt beam="1">  1        2 0.16309282E+00 0.42796140E+02</pdfrwt>
<pdfrwt beam="2">  1        2 0.19963981E+00 0.64432718E+02</pdfrwt>
<totfact> 0.81138027E+01</totfact>
</mgrwt>
</event>
<event>
13    1  0.2101801E-008  0.9653304E+02  0.7546771E-02  0.1442344E+00
          2   -1    0    0  503    0  0.00000000000E+00  0.00000000000E+00  0.19469412951E+04  0.19469412951E+04  0.00000000000E+00 0. -1.
          2   -1    0    0  502    0 -0.00000000000E+00 -0.00000000000E+00 -0.16175239709E+04  0.16175239709E+04  0.00000000000E+00 0. -1.
         24    2    1    2    0    0 -0.25132469220E+02  0.68440484771E+02 -0.89663479131E+02  0.14106477408E+03  0.80894932057E+02 0.  0.
         25    2    1    2    0    0  0.14206799513E+03 -0.32756313703E+01  0.92487540034E+03  0.94404152386E+03  0.12500339041E+03 0.  0.
         24    2    1    2    0    0 -0.83503996684E+02  0.46754699102E+01  0.30612009541E+03  0.32668967677E+03  0.77600609634E+02 0.  0.
        -11    1    5    5    0    0 -0.41919409629E+02 -0.20829740684E+02  0.61688652920E+02  0.77437748545E+02  0.00000000000E+00 0.  1.
         12    1    5    5    0    0 -0.41584587055E+02  0.25505210595E+02  0.24443144249E+03  0.24925192823E+03  0.00000000000E+00 0. -1.
        -13    1    3    3    0    0 -0.12245762077E+02 -0.17336363642E+02 -0.10715873216E+02  0.23776840244E+02  0.00000000000E+00 0.  1.
         14    1    3    3    0    0 -0.12886707143E+02  0.85776848414E+02 -0.78947605914E+02  0.11728793384E+03  0.00000000000E+00 0. -1.
          5    1    4    4  501    0 -0.37634380291E+01  0.29624245427E+02  0.71037515286E+02  0.77202188835E+02  0.47000000000E+01 0. -1.
         -5    1    4    4    0  501  0.14583143316E+03 -0.32899876797E+02  0.85383788505E+03  0.86683933502E+03  0.47000000000E+01 0. -1.
          1    1    1    2  502    0 -0.59097162065E+02 -0.76361710097E+02 -0.14804570897E+04  0.14836026354E+04  0.00000000000E+00 0. -1.
          1    1    1    2  503    0  0.25665632836E+02  0.65213867862E+01  0.66854239721E+03  0.66906665591E+03  0.00000000000E+00 0. -1.
<mgrwt>
<rscale>  0 0.50559958E+02</rscale>
<asrwt>0</asrwt>
<pdfrwt beam="1">  1        2 0.28631490E+00 0.26481186E+02</pdfrwt>
<pdfrwt beam="2">  1        2 0.23787117E+00 0.96533041E+02</pdfrwt>
<totfact> 0.24620367E+01</totfact>
</mgrwt>
</event>
<event>
13    1  0.2101801E-008  0.1644092E+03  0.7546771E-02  0.1270213E+00
          2   -1    0    0  503    0  0.00000000000E+00  0.00000000000E+00  0.11299988284E+04  0.11299988284E+04  0.00000000000E+00 0. -1.
         -1   -1    0    0    0  501 -0.00000000000E+00 -0.00000000000E+00 -0.10591704565E+04  0.10591704565E+04  0.00000000000E+00 0.  1.
         24    2    1    2    0    0  0.95303289995E+02  0.91614039876E+02 -0.12307903902E+03  0.20159026080E+03  0.89522812827E+02 0.  0.
         25    2    1    2    0    0 -0.12714241330E+02 -0.18785066591E+03  0.37448630185E+03  0.43739612747E+03  0.12500342971E+03 0.  0.
         24    2    1    2    0    0  0.13730055623E+02  0.44341790790E+02  0.55351469676E+03  0.56098302387E+03  0.78541229336E+02 0.  0.
        -11    1    5    5    0    0 -0.83543097283E+01 -0.20246788718E+02  0.10088425618E+03  0.10323449079E+03  0.00000000000E+00 0.  1.
         12    1    5    5    0    0  0.22084365351E+02  0.64588579509E+02  0.45263044058E+03  0.45774853308E+03  0.00000000000E+00 0. -1.
        -13    1    3    3    0    0  0.31796038656E+02 -0.11478405330E+02 -0.84292311655E+01  0.34839543642E+02  0.00000000000E+00 0.  1.
         14    1    3    3    0    0  0.63507251339E+02  0.10309244521E+03 -0.11464980786E+03  0.16675071716E+03  0.00000000000E+00 0. -1.
          5    1    4    4  502    0 -0.32845050915E+02 -0.19584739071E+03  0.30096584329E+03  0.36060716388E+03  0.47000000000E+01 0.  1.
         -5    1    4    4    0  502  0.20130809585E+02  0.79967247996E+01  0.73520458560E+02  0.76788963588E+02  0.47000000000E+01 0.  1.
          1    1    1    2  503    0  0.65172796579E+02  0.15530027983E+02  0.11012571812E+03  0.12890441798E+03  0.00000000000E+00 0. -1.
         -2    1    1    2    0  501 -0.16149190087E+03  0.36364807262E+02 -0.84421930578E+03  0.86029545477E+03  0.00000000000E+00 0.  1.
<mgrwt>
<rscale>  0 0.10495245E+03</rscale>
<asrwt>0</asrwt>
<pdfrwt beam="1">  1        2 0.16617630E+00 0.66997576E+02</pdfrwt>
<pdfrwt beam="2">  1       -1 0.15576036E+00 0.16440919E+03</pdfrwt>
<totfact> 0.10388274E+01</totfact>
</mgrwt>
</event>
<event>
13    1  0.2101801E-008  0.1018836E+03  0.7546771E-02  0.1323087E+00
         -3   -1    0    0    0  501 -0.00000000000E+00  0.00000000000E+00  0.80891330819E+03  0.80891330819E+03  0.00000000000E+00 0.  1.
          2   -1    0    0  503    0  0.00000000000E+00 -0.00000000000E+00 -0.14816550518E+04  0.14816550518E+04  0.00000000000E+00 0. -1.
         24    2    1    2    0    0  0.22012194950E+02 -0.39926962969E+02  0.26748761987E+03  0.28270857319E+03  0.79346149712E+02 0.  0.
         25    2    1    2    0    0 -0.15004289672E+03 -0.15974134427E+03 -0.48683207567E+03  0.54832554761E+03  0.12500107332E+03 0.  0.
         24    2    1    2    0    0  0.49182187151E+02  0.59969397008E+02 -0.22312196744E+03  0.24990958439E+03  0.81585365762E+02 0.  0.
        -13    1    3    3    0    0 -0.32194411587E+01 -0.57586433121E+02  0.13719372258E+03  0.14882432461E+03  0.00000000000E+00 0.  1.
         14    1    3    3    0    0  0.25231636109E+02  0.17659470152E+02  0.13029389729E+03  0.13388424858E+03  0.00000000000E+00 0. -1.
        -13    1    5    5    0    0 -0.20251101069E+02  0.42527342592E+01 -0.23351549760E+02  0.31200764724E+02  0.00000000000E+00 0.  1.
         14    1    5    5    0    0  0.69433288220E+02  0.55716662749E+02 -0.19977041768E+03  0.21870881967E+03  0.00000000000E+00 0. -1.
          5    1    4    4  502    0 -0.15188828220E+03 -0.14274724404E+03 -0.48788454862E+03  0.53056597020E+03  0.47000000000E+01 0. -1.
         -5    1    4    4    0  502  0.18453854806E+01 -0.16994100229E+02  0.10524729563E+01  0.17759577402E+02  0.47000000000E+01 0. -1.
          1    1    1    2  503    0 -0.81961125198E+01  0.65712654948E+02 -0.71172898652E+03  0.71480310543E+03  0.00000000000E+00 0. -1.
         -4    1    1    2    0  501  0.87044627140E+02  0.73986255286E+02  0.48145366614E+03  0.49482154938E+03  0.00000000000E+00 0.  1.
<mgrwt>
<rscale>  0 0.82139603E+02</rscale>
<asrwt>0</asrwt>
<pdfrwt beam="2">  1        2 0.21789045E+00 0.66221819E+02</pdfrwt>
<pdfrwt beam="1">  1       -3 0.11895784E+00 0.10188356E+03</pdfrwt>
<totfact> 0.62891876E+00</totfact>
</mgrwt>
</event>
<event>
13    1  0.2101801E-008  0.9165133E+02  0.7546771E-02  0.1466945E+00
          2   -1    0    0  502    0  0.00000000000E+00  0.00000000000E+00  0.14430073789E+04  0.14430073789E+04  0.00000000000E+00 0. -1.
          2   -1    0    0  503    0 -0.00000000000E+00 -0.00000000000E+00 -0.18672769359E+04  0.18672769359E+04  0.00000000000E+00 0. -1.
         24    2    1    2    0    0 -0.41015391849E+01 -0.40581321110E+02 -0.82226393791E+02  0.12144133374E+03  0.79518246076E+02 0.  0.
         25    2    1    2    0    0 -0.68923931312E+02  0.11258197430E+02  0.59155264562E+03  0.60863649103E+03  0.12500636127E+03 0.  0.
         24    2    1    2    0    0 -0.42108317604E+02  0.15702713573E+02  0.40619032253E+02  0.10200384990E+03  0.82068227641E+02 0.  0.
        -11    1    5    5    0    0 -0.12678528207E+02 -0.33726742704E+02  0.14948103992E+02  0.39008769063E+02  0.00000000000E+00 0.  1.
         12    1    5    5    0    0 -0.29429789398E+02  0.49429456276E+02  0.25670928262E+02  0.62995080836E+02  0.00000000000E+00 0. -1.
        -11    1    3    3    0    0  0.13759911310E+02  0.15954769770E+02 -0.12854074183E+01  0.21107868436E+02  0.00000000000E+00 0.  1.
         12    1    3    3    0    0 -0.17861450495E+02 -0.56536090880E+02 -0.80940986373E+02  0.10033346531E+03  0.00000000000E+00 0. -1.
          5    1    4    4  501    0  0.66187776309E+00 -0.50043844736E+02  0.19894009288E+03  0.20519277530E+03  0.47000000000E+01 0. -1.
         -5    1    4    4    0  501 -0.69585809076E+02  0.61302042166E+02  0.39261255274E+03  0.40344371573E+03  0.47000000000E+01 0. -1.
          1    1    1    2  502    0  0.22144806071E+02  0.72313093730E+01  0.75055483461E+03  0.75091626965E+03  0.00000000000E+00 0. -1.
          1    1    1    2  503    0  0.92988982030E+02  0.63891007351E+01 -0.17247696757E+04  0.17272863705E+04  0.00000000000E+00 0. -1.
<mgrwt>
<rscale>  0 0.46206833E+02</rscale>
<asrwt>0</asrwt>
<pdfrwt beam="1">  1        2 0.21220697E+00 0.23295585E+02</pdfrwt>
<pdfrwt beam="2">  1        2 0.27459955E+00 0.91651334E+02</pdfrwt>
<totfact> 0.32006758E+01</totfact>
</mgrwt>
</event>
<event>
13    1  0.2101801E-008  0.1471375E+03  0.7546771E-02  0.1268310E+00
          2   -1    0    0  503    0  0.00000000000E+00  0.00000000000E+00  0.14577469706E+04  0.14577469706E+04  0.00000000000E+00 0. -1.
         -3   -1    0    0    0  501 -0.00000000000E+00 -0.00000000000E+00 -0.19541353035E+04  0.19541353035E+04  0.00000000000E+00 0.  1.
         24    2    1    2    0    0  0.13166314362E+03 -0.87489055429E+01 -0.30617018585E+03  0.34303481680E+03  0.80752560933E+02 0.  0.
         25    2    1    2    0    0  0.51471207482E+01  0.30511857599E+02  0.16220731619E+03  0.20710306997E+03  0.12499200718E+03 0.  0.
         24    2    1    2    0    0  0.61145804902E+02  0.83345463039E+02 -0.16124924909E+03  0.20863291190E+03  0.82710917845E+02 0.  0.
        -11    1    3    3    0    0  0.93307932594E+02  0.21046688158E+02 -0.25563423981E+03  0.27294358012E+03  0.00000000000E+00 0.  1.
         12    1    3    3    0    0  0.38355211024E+02 -0.29795593701E+02 -0.50535946046E+02  0.70091236681E+02  0.00000000000E+00 0. -1.
        -13    1    5    5    0    0  0.67742013971E+02  0.87856142834E+02 -0.10813914592E+03  0.15492500499E+03  0.00000000000E+00 0.  1.
         14    1    5    5    0    0 -0.65962090689E+01 -0.45106797955E+01 -0.53110103172E+02  0.53707906915E+02  0.00000000000E+00 0. -1.
          5    1    4    4  502    0 -0.44959486721E+02  0.38652202802E+02  0.13879870158E+03  0.15100502571E+03  0.47000000000E+01 0. -1.
         -5    1    4    4    0  502  0.50106607469E+02 -0.81403452029E+01  0.23408614608E+02  0.56098044261E+02  0.47000000000E+01 0. -1.
          1    1    1    2  503    0 -0.54389108975E+02 -0.53447015245E+02  0.12256868647E+04  0.12280566147E+04  0.00000000000E+00 0. -1.
         -4    1    1    2    0  501 -0.14356696029E+03 -0.51661399850E+02 -0.14168630787E+04  0.14250548608E+04  0.00000000000E+00 0.  1.
<mgrwt>
<rscale>  0 0.10592404E+03</rscale>
<asrwt>0</asrwt>
<pdfrwt beam="1">  1        2 0.21437456E+00 0.76254565E+02</pdfrwt>
<pdfrwt beam="2">  1       -3 0.28737284E+00 0.14713746E+03</pdfrwt>
<totfact> 0.56289385E-01</totfact>
</mgrwt>
</event>
<event>
13    1  0.2101801E-008  0.1364456E+03  0.7546771E-02  0.1372777E+00
          2   -1    0    0  502    0  0.00000000000E+00  0.00000000000E+00  0.22574470651E+04  0.22574470651E+04  0.00000000000E+00 0. -1.
          2   -1    0    0  503    0 -0.00000000000E+00 -0.00000000000E+00 -0.28849596983E+04  0.28849596983E+04  0.00000000000E+00 0. -1.
         24    2    1    2    0    0  0.17596541501E+01  0.37723791361E+01 -0.74376190888E+02  0.10908432434E+03  0.79688423369E+02 0.  0.
         25    2    1    2    0    0 -0.10541141958E+03  0.12476194821E+03 -0.31657480127E+03  0.37751940714E+03  0.12499674744E+03 0.  0.
         24    2    1    2    0    0 -0.61804124636E+02 -0.98286850016E+02 -0.44764128545E+01  0.14078651167E+03  0.79503137601E+02 0.  0.
        -11    1    3    3    0    0 -0.19505819872E+02 -0.57574811845E+01 -0.82063356113E+02  0.84545963918E+02  0.00000000000E+00 0.  1.
         12    1    3    3    0    0  0.21265474022E+02  0.95298603206E+01  0.76871652242E+01  0.24538360424E+02  0.00000000000E+00 0. -1.
        -13    1    5    5    0    0  0.21333339254E+01 -0.70012268873E+02  0.50671714278E+01  0.70227808827E+02  0.00000000000E+00 0.  1.
         14    1    5    5    0    0 -0.63937458561E+02 -0.28274581143E+02 -0.95435842822E+01  0.70558702844E+02  0.00000000000E+00 0. -1.
          5    1    4    4  501    0 -0.93306462647E+02  0.18634843405E+02 -0.11490534557E+03  0.14926044956E+03  0.47000000000E+01 0.  1.
         -5    1    4    4    0  501 -0.12104956937E+02  0.10612710481E+03 -0.20166945570E+03  0.22825895759E+03  0.47000000000E+01 0.  1.
          1    1    1    2  502    0  0.13479270191E+03 -0.20050936433E+02  0.21391874134E+04  0.21435237116E+04  0.00000000000E+00 0. -1.
          1    1    1    2  503    0  0.30663188162E+02 -0.10196540901E+02 -0.23712726416E+04  0.23714928086E+04  0.00000000000E+00 0. -1.
<mgrwt>
<rscale>  0 0.66401162E+02</rscale>
<asrwt>0</asrwt>
<pdfrwt beam="1">  1        2 0.33197751E+00 0.13644556E+03</pdfrwt>
<pdfrwt beam="2">  1        2 0.42425877E+00 0.32314092E+02</pdfrwt>
<totfact> 0.41248852E+00</totfact>
</mgrwt>
</event>
<event>
13    1  0.2101801E-008  0.2056921E+03  0.7546771E-02  0.1147235E+00
          2   -1    0    0  502    0  0.00000000000E+00  0.00000000000E+00  0.36287757844E+04  0.36287757844E+04  0.00000000000E+00 0. -1.
          2   -1    0    0  503    0 -0.00000000000E+00 -0.00000000000E+00 -0.23470442168E+04  0.23470442168E+04  0.00000000000E+00 0. -1.
         24    2    1    2    0    0 -0.10632992886E+03 -0.16092832734E+02 -0.12261026848E+04  0.12334747338E+04  0.81037597779E+02 0.  0.
         25    2    1    2    0    0 -0.76841375925E+02 -0.63967373066E+03 -0.17981193473E+03  0.68047368988E+03  0.12500012797E+03 0.  0.
         24    2    1    2    0    0  0.70970915657E+01 -0.45844904252E+02  0.15763999598E+02  0.94056824892E+02  0.80287350627E+02 0.  0.
        -13    1    5    5    0    0  0.14903774783E+01  0.14835187029E+01  0.40367001718E+02  0.40421737722E+02  0.00000000000E+00 0.  1.
         14    1    5    5    0    0  0.56067140874E+01 -0.47328422955E+02 -0.24603002121E+02  0.53635087169E+02  0.00000000000E+00 0. -1.
        -13    1    3    3    0    0 -0.64014842279E+01  0.55472509730E+01 -0.51394790917E+03  0.51401770819E+03  0.00000000000E+00 0.  1.
         14    1    3    3    0    0 -0.99928444632E+02 -0.21640083707E+02 -0.71215477559E+03  0.71945702558E+03  0.00000000000E+00 0. -1.
          5    1    4    4  501    0 -0.76643816673E+02 -0.22648452942E+03 -0.10201770477E+03  0.25999849766E+03  0.47000000000E+01 0. -1.
         -5    1    4    4    0  501 -0.19755925126E+00 -0.41318920125E+03 -0.77794229965E+02  0.42047519222E+03  0.47000000000E+01 0. -1.
          1    1    1    2  502    0  0.22265565148E+03  0.31759272090E+03  0.32495345784E+04  0.32726007474E+04  0.00000000000E+00 0. -1.
          1    1    1    2  503    0 -0.46581438260E+02  0.38401874675E+03 -0.57765239092E+03  0.69521400517E+03  0.00000000000E+00 0. -1.
<mgrwt>
<rscale>  0 0.20299624E+03</rscale>
<asrwt>0</asrwt>
<pdfrwt beam="1">  1        2 0.53364350E+00 0.20569214E+03</pdfrwt>
<pdfrwt beam="2">  1        2 0.34515356E+00 0.20033567E+03</pdfrwt>
<totfact> 0.10002655E+00</totfact>
</mgrwt>
</event>
<event>
13    1  0.2101801E-008  0.1326229E+03  0.7546771E-02  0.1319641E+00
          2   -1    0    0  502    0  0.00000000000E+00  0.00000000000E+00  0.22745187418E+04  0.22745187418E+04  0.00000000000E+00 0. -1.
          2   -1    0    0  503    0 -0.00000000000E+00 -0.00000000000E+00 -0.98548927834E+03  0.98548927834E+03  0.00000000000E+00 0. -1.
         24    2    1    2    0    0  0.11584810242E+03 -0.70935220884E+01 -0.14040920788E+03  0.19921475324E+03  0.80626740971E+02 0.  0.
         25    2    1    2    0    0 -0.11604919912E+03 -0.88521159804E+02  0.13582268205E+04  0.13717549660E+04  0.12501271267E+03 0.  0.
         24    2    1    2    0    0 -0.16674507080E+03  0.26924627673E+02  0.57398836382E+03  0.60414244810E+03  0.83645690772E+02 0.  0.
        -11    1    3    3    0    0  0.89993315640E+02 -0.40329663022E+02 -0.89779422333E+02  0.13336275062E+03  0.00000000000E+00 0.  1.
         12    1    3    3    0    0  0.25854786777E+02  0.33236140933E+02 -0.50629785549E+02  0.65852002613E+02  0.00000000000E+00 0. -1.
        -13    1    5    5    0    0 -0.13069082309E+03  0.11437067374E+02  0.52620285361E+03  0.54231018882E+03  0.00000000000E+00 0.  1.
         14    1    5    5    0    0 -0.36054247710E+02  0.15487560299E+02  0.47785510217E+02  0.61832259288E+02  0.00000000000E+00 0. -1.
          5    1    4    4  501    0 -0.40488981082E+02  0.26275480165E+02  0.52740128467E+03  0.52962624890E+03  0.47000000000E+01 0.  1.
         -5    1    4    4    0  501 -0.75560218042E+02 -0.11479663997E+03  0.83082553583E+03  0.84212871706E+03  0.47000000000E+01 0.  1.
          1    1    1    2  502    0  0.38697788766E+02  0.35419518935E+02  0.28310469813E+03  0.28792417626E+03  0.00000000000E+00 0. -1.
          1    1    1    2  503    0  0.12824837874E+03  0.33270535284E+02 -0.78588121115E+03  0.79697167654E+03  0.00000000000E+00 0. -1.
<mgrwt>
<rscale>  0 0.83411095E+02</rscale>
<asrwt>0</asrwt>
<pdfrwt beam="1">  1        2 0.33448805E+00 0.52460091E+02</pdfrwt>
<pdfrwt beam="2">  1        2 0.14492489E+00 0.13262292E+03</pdfrwt>
<totfact> 0.33608963E+01</totfact>
</mgrwt>
</event>
<event>
13    1  0.2101801E-008  0.2759003E+02  0.7546771E-02  0.1656052E+00
          2   -1    0    0  502    0  0.00000000000E+00  0.00000000000E+00  0.29125486654E+04  0.29125486654E+04  0.00000000000E+00 0. -1.
          2   -1    0    0  503    0 -0.00000000000E+00 -0.00000000000E+00 -0.27166232574E+04  0.27166232574E+04  0.00000000000E+00 0. -1.
         24    2    1    2    0    0 -0.59676623041E+03  0.28591124397E+03 -0.10921302115E+02  0.66658501890E+03  0.79631271456E+02 0.  0.
         25    2    1    2    0    0  0.59924441261E+03  0.13488281447E+04 -0.48261149094E+03  0.15578734840E+04  0.12499884417E+03 0.  0.
         24    2    1    2    0    0  0.43141553482E+02 -0.16301720521E+04  0.36140850392E+03  0.16722365418E+04  0.80229868571E+02 0.  0.
        -11    1    3    3    0    0 -0.44332473903E+03  0.20185150893E+03 -0.41869020118E+02  0.48891090266E+03  0.00000000000E+00 0.  1.
         12    1    3    3    0    0 -0.15344149139E+03  0.84059735038E+02  0.30947718003E+02  0.17767411624E+03  0.00000000000E+00 0. -1.
        -13    1    5    5    0    0  0.49347817246E+02 -0.52713703241E+03  0.10435083195E+03  0.53962742159E+03  0.00000000000E+00 0.  1.
         14    1    5    5    0    0 -0.62062637637E+01 -0.11030350197E+04  0.25705767198E+03  0.11326091202E+04  0.00000000000E+00 0. -1.
          5    1    4    4  501    0  0.43654869334E+03  0.90258081316E+03 -0.27626731400E+03  0.10399868291E+04  0.47000000000E+01 0.  1.
         -5    1    4    4    0  501  0.16269571928E+03  0.44624733154E+03 -0.20634417694E+03  0.51788665491E+03  0.47000000000E+01 0.  1.
          1    1    1    2  502    0 -0.26277804160E+02  0.84031868324E+01  0.10298854236E+04  0.10302548822E+04  0.00000000000E+00 0. -1.
          1    1    1    2  503    0 -0.19341931522E+02 -0.12970523356E+02 -0.70183572642E+03  0.70222199601E+03  0.00000000000E+00 0. -1.
<mgrwt>
<rscale>  0 0.25348073E+02</rscale>
<asrwt>0</asrwt>
<pdfrwt beam="1">  1        2 0.42831598E+00 0.27590030E+02</pdfrwt>
<pdfrwt beam="2">  1        2 0.39950342E+00 0.23288297E+02</pdfrwt>
<totfact> 0.31568680E+00</totfact>
</mgrwt>
</event>
<event>
13    1  0.2101801E-008  0.4558261E+02  0.7546771E-02  0.1544472E+00
          2   -1    0    0  502    0  0.00000000000E+00  0.00000000000E+00  0.47335285895E+03  0.47335285895E+03  0.00000000000E+00 0. -1.
          2   -1    0    0  503    0 -0.00000000000E+00 -0.00000000000E+00 -0.10402025268E+04  0.10402025268E+04  0.00000000000E+00 0. -1.
         24    2    1    2    0    0 -0.71789839235E+02  0.74193851174E+02  0.89930471540E+02  0.15772076332E+03  0.78293300489E+02 0.  0.
         25    2    1    2    0    0  0.80934675199E+02 -0.82217852637E+01 -0.27221158545E+03  0.31039050206E+03  0.12500038844E+03 0.  0.
         24    2    1    2    0    0 -0.66323445116E+01 -0.11584978388E+03  0.15719024808E+03  0.21144197645E+03  0.80831769113E+02 0.  0.
        -13    1    5    5    0    0 -0.23447405172E+02 -0.82161510866E+01  0.61928819031E+02  0.66726790531E+02  0.00000000000E+00 0.  1.
         14    1    5    5    0    0  0.16815060660E+02 -0.10763363279E+03  0.95261429046E+02  0.14471518592E+03  0.00000000000E+00 0. -1.
        -13    1    3    3    0    0 -0.16193943138E+02  0.34281798698E+02 -0.75063968618E+01  0.38650116561E+02  0.00000000000E+00 0.  1.
         14    1    3    3    0    0 -0.55595896097E+02  0.39912052475E+02  0.97436868402E+02  0.11907064676E+03  0.00000000000E+00 0. -1.
          5    1    4    4  501    0  0.69045870975E+02 -0.27403666696E+02 -0.27701742169E+03  0.28684322402E+03  0.47000000000E+01 0.  1.
         -5    1    4    4    0  501  0.11888804224E+02  0.19181881432E+02  0.48058362349E+01  0.23547278040E+02  0.47000000000E+01 0.  1.
          1    1    1    2  502    0 -0.26858116078E+02  0.36875957418E+02  0.14227586249E+03  0.14941089546E+03  0.00000000000E+00 0. -1.
          1    1    1    2  503    0  0.24345624625E+02  0.13001760549E+02 -0.68403466446E+03  0.68459124841E+03  0.00000000000E+00 0. -1.
<mgrwt>
<rscale>  0 0.35469368E+02</rscale>
<asrwt>0</asrwt>
<pdfrwt beam="1">  1        2 0.69610715E-01 0.45582609E+02</pdfrwt>
<pdfrwt beam="2">  1        2 0.15297096E+00 0.27599913E+02</pdfrwt>
<totfact> 0.32813848E+02</totfact>
</mgrwt>
</event>
<event>
13    1  0.2101801E-008  0.1073523E+03  0.7546771E-02  0.1275346E+00
          2   -1    0    0  503    0  0.00000000000E+00  0.00000000000E+00  0.14833663961E+04  0.14833663961E+04  0.00000000000E+00 0. -1.
         -1   -1    0    0    0  501 -0.00000000000E+00 -0.00000000000E+00 -0.45720973687E+03  0.45720973687E+03  0.00000000000E+00 0.  1.
         24    2    1    2    0    0 -0.50502910324E+02 -0.32000961641E+02 -0.42844877131E+02  0.10635357673E+03  0.76816627685E+02 0.  0.
         25    2    1    2    0    0  0.61736108020E+02 -0.92243117361E+02  0.11725849140E+03  0.20418499215E+03  0.12498726928E+03 0.  0.
         24    2    1    2    0    0  0.44568337602E+02  0.11701100677E+02 -0.11200234869E+03  0.14515231109E+03  0.80008842202E+02 0.  0.
        -11    1    3    3    0    0 -0.41174799412E+02  0.36607617961E-01 -0.56825804965E+02  0.70175049388E+02  0.00000000000E+00 0.  1.
         12    1    3    3    0    0 -0.93281109123E+01 -0.32037569259E+02  0.13980927834E+02  0.36178527338E+02  0.00000000000E+00 0. -1.
        -11    1    5    5    0    0  0.17980055672E+02  0.41096500580E+02 -0.29687634005E+02  0.53791824422E+02  0.00000000000E+00 0.  1.
         12    1    5    5    0    0  0.26588281930E+02 -0.29395399903E+02 -0.82314714684E+02  0.91360486672E+02  0.00000000000E+00 0. -1.
          5    1    4    4  502    0 -0.21223955918E+02 -0.21464498619E+02  0.85065648141E+02  0.90384929603E+02  0.47000000000E+01 0. -1.
         -5    1    4    4    0  502  0.82960063937E+02 -0.70778618742E+02  0.32192843259E+02  0.11380006255E+03  0.47000000000E+01 0. -1.
          1    1    1    2  503    0 -0.95516637518E+02  0.14157761205E+02  0.12589833427E+04  0.12626808494E+04  0.00000000000E+00 0. -1.
         -2    1    1    2    0  501  0.39715102220E+02  0.98385217120E+02 -0.19523794898E+03  0.22220440368E+03  0.00000000000E+00 0.  1.
<mgrwt>
<rscale>  0 0.10239157E+03</rscale>
<asrwt>0</asrwt>
<pdfrwt beam="1">  1        2 0.21814212E+00 0.97660058E+02</pdfrwt>
<pdfrwt beam="2">  1       -1 0.67236726E-01 0.10735232E+03</pdfrwt>
<totfact> 0.44706741E+01</totfact>
</mgrwt>
</event>
<event>
13    1  0.2101801E-008  0.9138007E+02  0.7546771E-02  0.1311403E+00
          2   -1    0    0  502    0  0.00000000000E+00  0.00000000000E+00  0.14637928318E+04  0.14637928318E+04  0.00000000000E+00 0. -1.
          2   -1    0    0  503    0 -0.00000000000E+00 -0.00000000000E+00 -0.40939684507E+03  0.40939684507E+03  0.00000000000E+00 0. -1.
         24    2    1    2    0    0 -0.39548612747E+02 -0.18732046934E+02 -0.23247258711E+03  0.25227844462E+03  0.87669421754E+02 0.  0.
         25    2    1    2    0    0  0.10621064417E+03 -0.87301640372E+02  0.72422352832E+03  0.74768178737E+03  0.12500423530E+03 0.  0.
         24    2    1    2    0    0  0.28462243822E+02 -0.36602760596E+02 -0.32046988345E+02  0.96247310676E+02  0.78017138782E+02 0.  0.
        -11    1    3    3    0    0 -0.18824521667E+02 -0.53905218617E+02 -0.13109927514E+03  0.14299354934E+03  0.00000000000E+00 0.  1.
         12    1    3    3    0    0 -0.20724091080E+02  0.35173171683E+02 -0.10137331197E+03  0.10928489528E+03  0.00000000000E+00 0. -1.
        -13    1    5    5    0    0  0.50412657365E+02 -0.92309432525E+01 -0.41430527436E+01  0.51418004843E+02  0.00000000000E+00 0.  1.
         14    1    5    5    0    0 -0.21950413544E+02 -0.27371817344E+02 -0.27903935601E+02  0.44829305833E+02  0.00000000000E+00 0. -1.
          5    1    4    4  501    0  0.13762629327E+02 -0.38934907058E+02  0.48343223816E+03  0.48521557668E+03  0.47000000000E+01 0. -1.
         -5    1    4    4    0  501  0.92448014843E+02 -0.48366733314E+02  0.24079129016E+03  0.26246621069E+03  0.47000000000E+01 0. -1.
          1    1    1    2  502    0 -0.59620226866E+02  0.68727880875E+02  0.66364262437E+03  0.66985045043E+03  0.00000000000E+00 0. -1.
          1    1    1    2  503    0 -0.35504048379E+02  0.73908567028E+02 -0.68950590517E+02  0.10713168375E+03  0.00000000000E+00 0. -1.
<mgrwt>
<rscale>  0 0.86559901E+02</rscale>
<asrwt>0</asrwt>
<pdfrwt beam="1">  1        2 0.21526365E+00 0.91380073E+02</pdfrwt>
<pdfrwt beam="2">  1        2 0.60205419E-01 0.81993986E+02</pdfrwt>
<totfact> 0.21461847E+02</totfact>
</mgrwt>
</event>
<event>
13    1  0.2101801E-008  0.1464066E+03  0.7546771E-02  0.1316648E+00
          2   -1    0    0  503    0  0.00000000000E+00  0.00000000000E+00  0.12999799094E+04  0.12999799094E+04  0.00000000000E+00 0. -1.
         -1   -1    0    0    0  501 -0.00000000000E+00 -0.00000000000E+00 -0.11856013929E+04  0.11856013929E+04  0.00000000000E+00 0.  1.
         24    2    1    2    0    0  0.14274797411E+03 -0.31295199931E+01 -0.26287221856E+03  0.30950949567E+03  0.79420064293E+02 0.  0.
         25    2    1    2    0    0 -0.22530229403E+03  0.88263800328E+02  0.40573704298E+03  0.48867064609E+03  0.12499932064E+03 0.  0.
         24    2    1    2    0    0  0.65978321746E+02  0.15745145582E+02  0.57063641710E+02  0.11847740158E+03  0.78610348743E+02 0.  0.
        -11    1    3    3    0    0  0.68470269471E+01  0.23565277846E+02 -0.32740114134E+02  0.40916001411E+02  0.00000000000E+00 0.  1.
         12    1    3    3    0    0  0.13590094716E+03 -0.26694797839E+02 -0.23013210442E+03  0.26859349426E+03  0.00000000000E+00 0. -1.
        -11    1    5    5    0    0  0.15635446603E+02  0.43395564945E+02  0.21211766965E+02  0.50769885810E+02  0.00000000000E+00 0.  1.
         12    1    5    5    0    0  0.50342875143E+02 -0.27650419363E+02  0.35851874745E+02  0.67707515767E+02  0.00000000000E+00 0. -1.
          5    1    4    4  502    0 -0.12140768551E+03  0.10896751600E+03  0.20898026653E+03  0.26515766525E+03  0.47000000000E+01 0. -1.
         -5    1    4    4    0  502 -0.10389460852E+03 -0.20703715676E+02  0.19675677645E+03  0.22351298083E+03  0.47000000000E+01 0. -1.
          1    1    1    2  503    0 -0.30018293088E+02  0.38491312548E+02  0.73434392660E+03  0.73596445675E+03  0.00000000000E+00 0. -1.
         -2    1    1    2    0  501  0.46594291263E+02 -0.13937073847E+03 -0.81989387625E+03  0.83295930214E+03  0.00000000000E+00 0.  1.
<mgrwt>
<rscale>  0 0.84536976E+02</rscale>
<asrwt>0</asrwt>
<pdfrwt beam="1">  1        2 0.19117352E+00 0.48812694E+02</pdfrwt>
<pdfrwt beam="2">  1       -1 0.17435315E+00 0.14640660E+03</pdfrwt>
<totfact> 0.64305740E+00</totfact>
</mgrwt>
</event>
<event>
13    1  0.2101801E-008  0.9620926E+02  0.7546771E-02  0.1307320E+00
         -1   -1    0    0    0  501 -0.00000000000E+00  0.00000000000E+00  0.14456521336E+04  0.14456521336E+04  0.00000000000E+00 0.  1.
          2   -1    0    0  503    0  0.00000000000E+00 -0.00000000000E+00 -0.11869813633E+04  0.11869813633E+04  0.00000000000E+00 0. -1.
         24    2    1    2    0    0  0.70067038710E+02  0.53746320649E+02  0.10379999399E+04  0.10449655437E+04  0.81921031369E+02 0.  0.
         25    2    1    2    0    0 -0.69386857720E+02  0.45742188718E+01 -0.15683666977E+03  0.21226406004E+03  0.12499132249E+03 0.  0.
         24    2    1    2    0    0  0.26606593405E+02  0.50698522302E+02 -0.63018682219E+01  0.98686132705E+02  0.80131069311E+02 0.  0.
        -11    1    5    5    0    0  0.32101808668E+02  0.65223792258E+02 -0.22645005299E+02  0.76141089179E+02  0.00000000000E+00 0.  1.
         12    1    5    5    0    0 -0.54952152630E+01 -0.14525269956E+02  0.16343137077E+02  0.22545043526E+02  0.00000000000E+00 0. -1.
        -13    1    3    3    0    0  0.23284894758E+02  0.32065674691E+02  0.81975944511E+03  0.82071672437E+03  0.00000000000E+00 0.  1.
         14    1    3    3    0    0  0.46782143951E+02  0.21680645957E+02  0.21824049483E+03  0.22424881936E+03  0.00000000000E+00 0. -1.
          5    1    4    4  502    0 -0.37744314242E+02  0.22816891760E+02 -0.16802142527E+03  0.17377725155E+03  0.47000000000E+01 0.  1.
         -5    1    4    4    0  502 -0.31642543479E+02 -0.18242672888E+02  0.11184755500E+02  0.38486808487E+02  0.47000000000E+01 0.  1.
          1    1    1    2  503    0 -0.91106487059E+02 -0.37024153058E+02 -0.93681868360E+03  0.94196625514E+03  0.00000000000E+00 0. -1.
         -2    1    1    2    0  501  0.63819712665E+02 -0.71994908765E+02  0.32062805193E+03  0.33475150529E+03  0.00000000000E+00 0.  1.
<mgrwt>
<rscale>  0 0.88179778E+02</rscale>
<asrwt>0</asrwt>
<pdfrwt beam="2">  1        2 0.17455608E+00 0.80820422E+02</pdfrwt>
<pdfrwt beam="1">  1       -1 0.21259590E+00 0.96209265E+02</pdfrwt>
<totfact> 0.40962913E+00</totfact>
</mgrwt>
</event>
<event>
13    1  0.2101801E-008  0.1026373E+03  0.7546771E-02  0.1397728E+00
          2   -1    0    0  502    0  0.00000000000E+00  0.00000000000E+00  0.39228273184E+04  0.39228273184E+04  0.00000000000E+00 0. -1.
          2   -1    0    0  503    0 -0.00000000000E+00 -0.00000000000E+00 -0.83360188559E+03  0.83360188559E+03  0.00000000000E+00 0. -1.
         24    2    1    2    0    0 -0.25267044802E+02 -0.45223741972E+02 -0.56622038608E+03  0.57436938576E+03  0.81308396205E+02 0.  0.
         25    2    1    2    0    0 -0.16118552646E+02  0.17339611696E+03 -0.16384051796E+03  0.26980586048E+03  0.12500186363E+03 0.  0.
         24    2    1    2    0    0  0.10910391464E+03 -0.13048827926E+03  0.59462447218E+03  0.62363442080E+03  0.80067300917E+02 0.  0.
        -11    1    5    5    0    0 -0.82422926284E+01 -0.82438337450E+00  0.73152412936E+02  0.73619905692E+02  0.00000000000E+00 0.  1.
         12    1    5    5    0    0  0.11734620727E+03 -0.12966389589E+03  0.52147205924E+03  0.55001451511E+03  0.00000000000E+00 0. -1.
        -11    1    3    3    0    0 -0.28115351438E+02  0.17500715847E+02 -0.22429475942E+03  0.22672645885E+03  0.00000000000E+00 0.  1.
         12    1    3    3    0    0  0.28483066367E+01 -0.62724457819E+02 -0.34192562666E+03  0.34764292690E+03  0.00000000000E+00 0. -1.
          5    1    4    4  501    0 -0.59690388303E+02  0.15597807446E+03 -0.13159000944E+03  0.21267374721E+03  0.47000000000E+01 0.  1.
         -5    1    4    4    0  501  0.43571835657E+02  0.17418042493E+02 -0.32250508519E+02  0.57132113269E+02  0.47000000000E+01 0.  1.
          1    1    1    2  502    0 -0.10266472210E+03 -0.10049502087E+01  0.32459446085E+04  0.32475679295E+04  0.00000000000E+00 0. -1.
          1    1    1    2  503    0  0.34946404905E+02  0.33208544858E+01 -0.21282743853E+02  0.41051607474E+02  0.00000000000E+00 0. -1.
<mgrwt>
<rscale>  0 0.60024697E+02</rscale>
<asrwt>0</asrwt>
<pdfrwt beam="1">  1        2 0.57688637E+00 0.10263734E+03</pdfrwt>
<pdfrwt beam="2">  1        2 0.12258851E+00 0.35103836E+02</pdfrwt>
<totfact> 0.49569652E+00</totfact>
</mgrwt>
</event>
<event>
13    1  0.2101801E-008  0.9510598E+02  0.7546771E-02  0.1338389E+00
          2   -1    0    0  502    0  0.00000000000E+00  0.00000000000E+00  0.41509524133E+04  0.41509524133E+04  0.00000000000E+00 0. -1.
          2   -1    0    0  503    0 -0.00000000000E+00 -0.00000000000E+00 -0.27723617020E+04  0.27723617020E+04  0.00000000000E+00 0. -1.
         24    2    1    2    0    0 -0.37924430898E+03  0.51150263197E+03 -0.55068069102E+03  0.84414589802E+03  0.62224474891E+02 0.  0.
         25    2    1    2    0    0  0.10483251055E+03  0.18473073640E+03  0.44941930242E+02  0.25051335027E+03  0.12498744469E+03 0.  0.
         24    2    1    2    0    0  0.27113281235E+03 -0.54237241766E+03  0.13099554069E+04  0.14457072406E+04  0.80033842297E+02 0.  0.
        -11    1    3    3    0    0 -0.35553976313E+03  0.44769276648E+03 -0.49432510367E+03  0.75577420203E+03  0.00000000000E+00 0.  1.
         12    1    3    3    0    0 -0.23704545848E+02  0.63809865485E+02 -0.56355587349E+02  0.88371695993E+02  0.00000000000E+00 0. -1.
        -11    1    5    5    0    0  0.14118804067E+03 -0.35266913760E+03  0.76129178792E+03  0.85080830379E+03  0.00000000000E+00 0.  1.
         12    1    5    5    0    0  0.12994477168E+03 -0.18970328005E+03  0.54866361902E+03  0.59489893679E+03  0.00000000000E+00 0. -1.
          5    1    4    4  501    0  0.94832943112E+02  0.18478175149E+03  0.73124088733E+02  0.22024260518E+03  0.47000000000E+01 0. -1.
         -5    1    4    4    0  501  0.99995674354E+01 -0.51015083532E-01 -0.28182158491E+02  0.30270745095E+02  0.47000000000E+01 0. -1.
          1    1    1    2  502    0  0.17319206330E+02 -0.93455109177E+02  0.24772443471E+04  0.24790670357E+04  0.00000000000E+00 0. -1.
          1    1    1    2  503    0 -0.14040220244E+02 -0.60405841540E+02 -0.19028702820E+04  0.19038805906E+04  0.00000000000E+00 0. -1.
<mgrwt>
<rscale>  0 0.76799085E+02</rscale>
<asrwt>0</asrwt>
<pdfrwt beam="1">  1        2 0.61043419E+00 0.95105980E+02</pdfrwt>
<pdfrwt beam="2">  1        2 0.40770025E+00 0.62016074E+02</pdfrwt>
<totfact> 0.37421729E-01</totfact>
</mgrwt>
</event>
<event>
13    1  0.2101801E-008  0.2372967E+03  0.7546771E-02  0.1264233E+00
          2   -1    0    0  503    0  0.00000000000E+00  0.00000000000E+00  0.17645406483E+04  0.17645406483E+04  0.00000000000E+00 0. -1.
          2   -1    0    0  502    0 -0.00000000000E+00 -0.00000000000E+00 -0.72731163833E+03  0.72731163833E+03  0.00000000000E+00 0. -1.
         24    2    1    2    0    0 -0.91333905683E+02  0.19212141116E+03 -0.53769479421E+02  0.23347058086E+03  0.79779923887E+02 0.  0.
         25    2    1    2    0    0 -0.11508732553E+03 -0.19088390382E+03  0.16964055782E+03  0.30673212464E+03  0.12499968077E+03 0.  0.
         24    2    1    2    0    0 -0.86994675995E+02 -0.29589621694E+02  0.80629324523E+02  0.14665602071E+03  0.81014079479E+02 0.  0.
        -11    1    5    5    0    0 -0.75406116742E+02 -0.45655975255E+02  0.88894759991E+02  0.12519116931E+03  0.00000000000E+00 0.  1.
         12    1    5    5    0    0 -0.11588559253E+02  0.16066353561E+02 -0.82654354672E+01  0.21464851403E+02  0.00000000000E+00 0. -1.
        -13    1    3    3    0    0 -0.85068382208E+02  0.87251075324E+02 -0.23101084348E+02  0.12402838342E+03  0.00000000000E+00 0.  1.
         14    1    3    3    0    0 -0.62655234754E+01  0.10487033584E+03 -0.30668395074E+02  0.10944219744E+03  0.00000000000E+00 0. -1.
          5    1    4    4  501    0 -0.95185065522E+02 -0.17335884763E+03  0.80442487274E+02  0.21355694910E+03  0.47000000000E+01 0. -1.
         -5    1    4    4    0  501 -0.19902260009E+02 -0.17525056189E+02  0.89198070543E+02  0.93175175538E+02  0.47000000000E+01 0. -1.
          1    1    1    2  502    0  0.25299797968E+03  0.30704521824E+00 -0.44844091386E+03  0.51488573997E+03  0.00000000000E+00 0. -1.
          1    1    1    2  503    0  0.40417927527E+02  0.28045069132E+02  0.12891695209E+04  0.12901078205E+04  0.00000000000E+00 0. -1.
<mgrwt>
<rscale>  0 0.10804526E+03</rscale>
<asrwt>0</asrwt>
<pdfrwt beam="1">  1        2 0.25949127E+00 0.49194865E+02</pdfrwt>
<pdfrwt beam="2">  1        2 0.10695759E+00 0.23729668E+03</pdfrwt>
<totfact> 0.84194252E+01</totfact>
</mgrwt>
</event>
<event>
13    1  0.2101801E-008  0.8678761E+02  0.7546771E-02  0.1321913E+00
          2   -1    0    0  502    0  0.00000000000E+00  0.00000000000E+00  0.44730082599E+04  0.44730082599E+04  0.00000000000E+00 0. -1.
          2   -1    0    0  503    0 -0.00000000000E+00 -0.00000000000E+00 -0.26505231077E+04  0.26505231077E+04  0.00000000000E+00 0. -1.
         24    2    1    2    0    0 -0.13594843205E+04  0.16239743514E+04 -0.69645520167E+03  0.22310668163E+04  0.84374042184E+02 0.  0.
         25    2    1    2    0    0  0.13694396913E+04 -0.69439454990E+03  0.12010357317E+04  0.19533714486E+04  0.12499731367E+03 0.  0.
         24    2    1    2    0    0  0.44527531613E+02 -0.97611452591E+03  0.65844380548E+03  0.11809033736E+04  0.78754453899E+02 0.  0.
        -11    1    5    5    0    0  0.31404363930E+02 -0.30894588172E+03  0.17075169776E+03  0.35438670149E+03  0.00000000000E+00 0.  1.
         12    1    5    5    0    0  0.13123167683E+02 -0.66716864419E+03  0.48769210771E+03  0.82651667209E+03  0.00000000000E+00 0. -1.
        -11    1    3    3    0    0 -0.51161263467E+03  0.62906978683E+03 -0.30818248078E+03  0.86744033000E+03  0.00000000000E+00 0.  1.
         12    1    3    3    0    0 -0.84787168582E+03  0.99490456457E+03 -0.38827272088E+03  0.13636264863E+04  0.00000000000E+00 0. -1.
          5    1    4    4  501    0  0.37661972432E+03 -0.24513900213E+03  0.31368301389E+03  0.54804623009E+03  0.47000000000E+01 0.  1.
         -5    1    4    4    0  501  0.99281996695E+03 -0.44925554778E+03  0.88735271777E+03  0.14053252185E+04  0.47000000000E+01 0.  1.
          1    1    1    2  502    0  0.13582439838E+02  0.85755325576E+02  0.12044462631E+04  0.12075716373E+04  0.00000000000E+00 0. -1.
          1    1    1    2  503    0 -0.68065342231E+02 -0.39220601161E+02 -0.54498544637E+03  0.55061809190E+03  0.00000000000E+00 0. -1.
<mgrwt>
<rscale>  0 0.82569626E+02</rscale>
<asrwt>0</asrwt>
<pdfrwt beam="1">  1        2 0.65779533E+00 0.86787607E+02</pdfrwt>
<pdfrwt beam="2">  1        2 0.38978281E+00 0.78556644E+02</pdfrwt>
<totfact> 0.24576061E-01</totfact>
</mgrwt>
</event>
<event>
13    1  0.2101801E-008  0.7076669E+02  0.7546771E-02  0.1479149E+00
          2   -1    0    0  503    0  0.00000000000E+00  0.00000000000E+00  0.13074923550E+04  0.13074923550E+04  0.00000000000E+00 0. -1.
          2   -1    0    0  502    0 -0.00000000000E+00 -0.00000000000E+00 -0.32907026038E+04  0.32907026038E+04  0.00000000000E+00 0. -1.
         24    2    1    2    0    0 -0.26993880516E+01 -0.12593073042E+03 -0.12008254872E+04  0.12099509157E+04  0.78316870156E+02 0.  0.
         25    2    1    2    0    0  0.34278645726E+02  0.23630838485E+03  0.49874230846E+03  0.56690897104E+03  0.12500085160E+03 0.  0.
         24    2    1    2    0    0  0.32019469770E+02 -0.35664421182E+02  0.14251685601E+03  0.17028379173E+03  0.79926954765E+02 0.  0.
        -11    1    5    5    0    0  0.34118463253E+02 -0.16513231910E+01  0.13312350061E+02  0.36660811055E+02  0.00000000000E+00 0.  1.
         12    1    5    5    0    0 -0.20989934832E+01 -0.34013097991E+02  0.12920450594E+03  0.13362298068E+03  0.00000000000E+00 0. -1.
        -13    1    3    3    0    0 -0.11037732497E+02 -0.22875638367E+02 -0.58150247491E+03  0.58205691706E+03  0.00000000000E+00 0.  1.
         14    1    3    3    0    0  0.83383444451E+01 -0.10305509206E+03 -0.61932301227E+03  0.62789399863E+03  0.00000000000E+00 0. -1.
          5    1    4    4  501    0  0.70851825614E+02  0.21367341150E+03  0.43579266510E+03  0.49052384746E+03  0.47000000000E+01 0. -1.
         -5    1    4    4    0  501 -0.36573179888E+02  0.22634973349E+02  0.62949643361E+02  0.76385123584E+02  0.47000000000E+01 0. -1.
          1    1    1    2  502    0 -0.15352551917E+02 -0.23002865472E+02 -0.20352158578E+04  0.20354037488E+04  0.00000000000E+00 0. -1.
          1    1    1    2  503    0 -0.48246175527E+02 -0.51710367770E+02  0.61157193164E+03  0.61564753159E+03  0.00000000000E+00 0. -1.
<mgrwt>
<rscale>  0 0.44239075E+02</rscale>
<asrwt>0</asrwt>
<pdfrwt beam="1">  1        2 0.19227829E+00 0.70766686E+02</pdfrwt>
<pdfrwt beam="2">  1        2 0.48392684E+00 0.27655608E+02</pdfrwt>
<totfact> 0.81267028E+00</totfact>
</mgrwt>
</event>
<event>
13    1  0.2101801E-008  0.2842838E+03  0.7546771E-02  0.1281349E+00
          2   -1    0    0  503    0  0.00000000000E+00  0.00000000000E+00  0.20599120360E+04  0.20599120360E+04  0.00000000000E+00 0. -1.
          2   -1    0    0  502    0 -0.00000000000E+00 -0.00000000000E+00 -0.27130904850E+04  0.27130904850E+04  0.00000000000E+00 0. -1.
         24    2    1    2    0    0  0.24458376128E+03  0.18873047387E+03 -0.49848271372E+03  0.59189579718E+03  0.80095011064E+02 0.  0.
         25    2    1    2    0    0 -0.46250373509E+02 -0.27612260645E+02  0.25922828177E+03  0.29278403399E+03  0.12498661730E+03 0.  0.
         24    2    1    2    0    0 -0.84332377394E+02  0.10627346772E+03  0.11397255975E+02  0.15804036988E+03  0.80254976473E+02 0.  0.
        -13    1    3    3    0    0  0.69354720972E+02  0.13293951272E+02 -0.96257897451E+02  0.11938337105E+03  0.00000000000E+00 0.  1.
         14    1    3    3    0    0  0.17522904031E+03  0.17543652260E+03 -0.40222481627E+03  0.47251242613E+03  0.00000000000E+00 0. -1.
        -13    1    5    5    0    0 -0.27521624625E+02  0.13670904024E+02  0.35299750826E+02  0.46801771838E+02  0.00000000000E+00 0.  1.
         14    1    5    5    0    0 -0.56810752769E+02  0.92602563698E+02 -0.23902494851E+02  0.11123859804E+03  0.00000000000E+00 0. -1.
          5    1    4    4  501    0  0.57568665370E+01  0.44955848314E+02  0.10603835908E+03  0.11541400871E+03  0.47000000000E+01 0.  1.
         -5    1    4    4    0  501 -0.52007240046E+02 -0.72568108959E+02  0.15318992269E+03  0.17737002528E+03  0.47000000000E+01 0.  1.
          1    1    1    2  502    0 -0.14109332141E+03 -0.24550932827E+03 -0.20679689014E+04  0.20872655636E+04  0.00000000000E+00 0. -1.
          1    1    1    2  503    0  0.27092311032E+02 -0.21882352678E+02  0.16426476284E+04  0.16430167564E+04  0.00000000000E+00 0. -1.
<mgrwt>
<rscale>  0 0.99500695E+02</rscale>
<asrwt>0</asrwt>
<pdfrwt beam="1">  1        2 0.30292824E+00 0.34825719E+02</pdfrwt>
<pdfrwt beam="2">  1        2 0.39898389E+00 0.28428382E+03</pdfrwt>
<totfact> 0.53582168E+00</totfact>
</mgrwt>
</event>
<event>
13    1  0.2101801E-008  0.1065590E+03  0.7546771E-02  0.1363504E+00
          2   -1    0    0  503    0  0.00000000000E+00  0.00000000000E+00  0.45829201619E+03  0.45829201619E+03  0.00000000000E+00 0. -1.
          2   -1    0    0  502    0 -0.00000000000E+00 -0.00000000000E+00 -0.86036155609E+03  0.86036155609E+03  0.00000000000E+00 0. -1.
         24    2    1    2    0    0  0.16294939073E+03 -0.95825291197E+02 -0.50746418226E+02  0.21198466175E+03  0.81408276498E+02 0.  0.
         25    2    1    2    0    0 -0.26694308176E+03 -0.92696948295E+01 -0.88282072490E+02  0.30783869456E+03  0.12500560548E+03 0.  0.
         24    2    1    2    0    0  0.83707365497E+01 -0.20675896730E+02  0.58703174286E+02  0.10216203203E+03  0.80581984225E+02 0.  0.
        -11    1    5    5    0    0 -0.21840796815E+01  0.25358923908E+02  0.47085732055E+02  0.53524867015E+02  0.00000000000E+00 0.  1.
         12    1    5    5    0    0  0.10554816231E+02 -0.46034820638E+02  0.11617442231E+02  0.48637165016E+02  0.00000000000E+00 0. -1.
        -13    1    3    3    0    0  0.86106941310E+02 -0.51254695456E+01 -0.12823096711E+02  0.87207267983E+02  0.00000000000E+00 0.  1.
         14    1    3    3    0    0  0.76842449416E+02 -0.90699821651E+02 -0.37923321515E+02  0.12477739376E+03  0.00000000000E+00 0. -1.
          5    1    4    4  501    0 -0.19143117830E+03  0.44624340288E+02 -0.31941745384E+02  0.19919737165E+03  0.47000000000E+01 0.  1.
         -5    1    4    4    0  501 -0.75511903458E+02 -0.53894035118E+02 -0.56340327106E+02  0.10864132291E+03  0.47000000000E+01 0.  1.
          1    1    1    2  502    0  0.44235347765E+02 -0.63453293296E+01 -0.48122286146E+03  0.48329335976E+03  0.00000000000E+00 0. -1.
          1    1    1    2  503    0  0.51387606721E+02  0.13211621209E+03  0.15947863799E+03  0.21337482419E+03  0.00000000000E+00 0. -1.
<mgrwt>
<rscale>  0 0.69006697E+02</rscale>
<asrwt>0</asrwt>
<pdfrwt beam="1">  1        2 0.67395886E-01 0.10655903E+03</pdfrwt>
<pdfrwt beam="2">  1        2 0.12652376E+00 0.44688133E+02</pdfrwt>
<totfact> 0.41595489E+02</totfact>
</mgrwt>
</event>
<event>
13    1  0.2101801E-008  0.1218551E+03  0.7546771E-02  0.1280237E+00
          2   -1    0    0  503    0  0.00000000000E+00  0.00000000000E+00  0.14328350779E+04  0.14328350779E+04  0.00000000000E+00 0. -1.
          2   -1    0    0  502    0 -0.00000000000E+00 -0.00000000000E+00 -0.89753400559E+03  0.89753400559E+03  0.00000000000E+00 0. -1.
         24    2    1    2    0    0 -0.10606935583E+03  0.31831139853E+02 -0.15536349051E+03  0.20841311504E+03  0.83870630290E+02 0.  0.
         25    2    1    2    0    0 -0.10027225399E+03 -0.12567220003E+03  0.33529645917E+03  0.39229984072E+03  0.12500969048E+03 0.  0.
         24    2    1    2    0    0  0.51491079723E+02  0.11116069643E+02  0.42920354805E+02  0.10494575898E+03  0.79978479455E+02 0.  0.
        -11    1    5    5    0    0 -0.23460751601E+01 -0.22077954668E+02 -0.81525210663E+01  0.23651717712E+02  0.00000000000E+00 0.  1.
         12    1    5    5    0    0  0.53837154884E+02  0.33194024311E+02  0.51072875871E+02  0.81294041268E+02  0.00000000000E+00 0. -1.
        -13    1    3    3    0    0 -0.12270878365E+02 -0.15252019337E+02  0.15491353770E+01  0.19636658833E+02  0.00000000000E+00 0.  1.
         14    1    3    3    0    0 -0.93798477469E+02  0.47083159190E+02 -0.15691262589E+03  0.18877645620E+03  0.00000000000E+00 0. -1.
          5    1    4    4  501    0  0.23998969975E+02 -0.33689345090E+02  0.12136096293E+03  0.12830236107E+03  0.47000000000E+01 0.  1.
         -5    1    4    4    0  501 -0.12427122396E+03 -0.91982854945E+02  0.21393549624E+03  0.26399747965E+03  0.47000000000E+01 0.  1.
          1    1    1    2  502    0  0.34907581428E+02  0.74320905314E+02 -0.64980621815E+03  0.65497347836E+03  0.00000000000E+00 0. -1.
          1    1    1    2  503    0  0.11994294867E+03  0.84040852241E+01  0.96225396699E+03  0.96973689038E+03  0.00000000000E+00 0. -1.
<mgrwt>
<rscale>  0 0.10002794E+03</rscale>
<asrwt>0</asrwt>
<pdfrwt beam="1">  1        2 0.21071104E+00 0.12185514E+03</pdfrwt>
<pdfrwt beam="2">  1        2 0.13199029E+00 0.82110512E+02</pdfrwt>
<totfact> 0.90415473E+01</totfact>
</mgrwt>
</event>
<event>
13    1  0.2101801E-008  0.1982350E+03  0.7546771E-02  0.1164488E+00
          4   -1    0    0  503    0 -0.00000000000E+00  0.00000000000E+00  0.65426525334E+03  0.65426525334E+03  0.00000000000E+00 0. -1.
          2   -1    0    0  502    0  0.00000000000E+00 -0.00000000000E+00 -0.29829927695E+04  0.29829927695E+04  0.00000000000E+00 0. -1.
         24    2    1    2    0    0  0.42175931362E+02  0.14368043500E+03  0.24798527673E+03  0.30065359403E+03  0.80455015621E+02 0.  0.
         25    2    1    2    0    0 -0.18947507856E+03  0.62808557188E+02 -0.32987903934E+03  0.40532264252E+03  0.12498217350E+03 0.  0.
         24    2    1    2    0    0  0.13907140109E+02  0.99851044041E+02 -0.97060571087E+03  0.97920524583E+03  0.81263940007E+02 0.  0.
        -11    1    3    3    0    0  0.20459077154E+02  0.62912273154E+02  0.42065047772E+02  0.78396404225E+02  0.00000000000E+00 0.  1.
         12    1    3    3    0    0  0.21716854209E+02  0.80768161849E+02  0.20592022896E+03  0.22225718980E+03  0.00000000000E+00 0. -1.
        -11    1    5    5    0    0 -0.17872786622E+02  0.95657527151E+02 -0.71137422156E+03  0.71799936080E+03  0.00000000000E+00 0.  1.
         12    1    5    5    0    0  0.31779926731E+02  0.41935168904E+01 -0.25923148931E+03  0.26120588504E+03  0.00000000000E+00 0. -1.
          5    1    4    4  501    0 -0.15757426485E+03  0.92082873334E+02 -0.30415577206E+03  0.35474177677E+03  0.47000000000E+01 0. -1.
         -5    1    4    4    0  501 -0.31900813710E+02 -0.29274316146E+02 -0.25723267282E+02  0.50580865758E+02  0.47000000000E+01 0. -1.
          1    1    1    2  502    0  0.33717528338E+03 -0.18279866835E+03 -0.15455682526E+04  0.15924458384E+04  0.00000000000E+00 0. -1.
          3    1    1    2  503    0 -0.20378327629E+03 -0.12354136789E+03  0.26934020983E+03  0.35963070212E+03  0.00000000000E+00 0. -1.
<mgrwt>
<rscale>  0 0.18346842E+03</rscale>
<asrwt>0</asrwt>
<pdfrwt beam="2">  1        2 0.43867541E+00 0.19823504E+03</pdfrwt>
<pdfrwt beam="1">  1        4 0.96215479E-01 0.16980177E+03</pdfrwt>
<totfact> 0.13063391E+00</totfact>
</mgrwt>
</event>
<event>
13    1  0.2101801E-008  0.1515611E+03  0.7546771E-02  0.1264196E+00
          2   -1    0    0  502    0  0.00000000000E+00  0.00000000000E+00  0.27436145230E+03  0.27436145230E+03  0.00000000000E+00 0. -1.
          2   -1    0    0  503    0 -0.00000000000E+00 -0.00000000000E+00 -0.38880295032E+04  0.38880295032E+04  0.00000000000E+00 0. -1.
         24    2    1    2    0    0 -0.74425845398E+02 -0.98820136175E+02 -0.10398246409E+04  0.10501336621E+04  0.78998724657E+02 0.  0.
         25    2    1    2    0    0 -0.15320744291E+02  0.29005015587E+03 -0.23955779480E+03  0.39670659479E+03  0.12499746865E+03 0.  0.
         24    2    1    2    0    0  0.69469152928E+02 -0.40851741634E+02 -0.14880533479E+04  0.14923594444E+04  0.79618571791E+02 0.  0.
        -13    1    3    3    0    0 -0.28751500738E+02  0.76318374881E+01 -0.27173177127E+03  0.27335517053E+03  0.00000000000E+00 0.  1.
         14    1    3    3    0    0 -0.45674344660E+02 -0.10645197366E+03 -0.76809286968E+03  0.77677849153E+03  0.00000000000E+00 0. -1.
        -13    1    5    5    0    0 -0.95038712537E+01  0.74092034134E+01 -0.45744799109E+03  0.45760669184E+03  0.00000000000E+00 0.  1.
         14    1    5    5    0    0  0.78973024182E+02 -0.48260945048E+02 -0.10306053568E+04  0.10347527525E+04  0.00000000000E+00 0. -1.
          5    1    4    4  501    0  0.47551290322E+02  0.11686474419E+03 -0.13487259527E+03  0.18474631417E+03  0.47000000000E+01 0. -1.
         -5    1    4    4    0  501 -0.62872034613E+02  0.17318541168E+03 -0.10468519953E+03  0.21196028061E+03  0.47000000000E+01 0. -1.
          1    1    1    2  502    0  0.90958400497E+02 -0.11970112920E+03  0.15678592620E+03  0.21721790351E+03  0.00000000000E+00 0. -1.
          1    1    1    2  503    0 -0.70680963736E+02 -0.30677148860E+02 -0.10030181934E+04  0.10059733508E+04  0.00000000000E+00 0. -1.
<mgrwt>
<rscale>  0 0.10806464E+03</rscale>
<asrwt>0</asrwt>
<pdfrwt beam="1">  1        2 0.40347276E-01 0.15156113E+03</pdfrwt>
<pdfrwt beam="2">  1        2 0.57176900E+00 0.77051191E+02</pdfrwt>
<totfact> 0.18012350E+01</totfact>
</mgrwt>
</event>
<event>
13    1  0.2101801E-008  0.6427415E+02  0.7546771E-02  0.1419246E+00
          2   -1    0    0  503    0  0.00000000000E+00  0.00000000000E+00  0.13154362986E+04  0.13154362986E+04  0.00000000000E+00 0. -1.
          2   -1    0    0  502    0 -0.00000000000E+00 -0.00000000000E+00 -0.75549593929E+03  0.75549593929E+03  0.00000000000E+00 0. -1.
         24    2    1    2    0    0 -0.18191967590E+02 -0.13079007560E+03  0.20813076909E+02  0.15767819767E+03  0.83619604693E+02 0.  0.
         25    2    1    2    0    0  0.54348747348E+02  0.20723226864E+03  0.67448060877E+03  0.71864433068E+03  0.12500633146E+03 0.  0.
         24    2    1    2    0    0 -0.23011846609E+02 -0.52211124521E+02 -0.18329919282E+02  0.10096653015E+03  0.81257046840E+02 0.  0.
        -11    1    5    5    0    0  0.26805922828E+02 -0.11391661354E+02  0.97381417312E+01  0.30710891414E+02  0.00000000000E+00 0.  1.
         12    1    5    5    0    0 -0.49817769437E+02 -0.40819463167E+02 -0.28068061013E+02  0.70255638734E+02  0.00000000000E+00 0. -1.
        -13    1    3    3    0    0  0.48579645146E+01 -0.62142498013E+02  0.49694435940E+02  0.79717167799E+02  0.00000000000E+00 0.  1.
         14    1    3    3    0    0 -0.23049932105E+02 -0.68647577591E+02 -0.28881359031E+02  0.77961029872E+02  0.00000000000E+00 0. -1.
          5    1    4    4  501    0  0.56141324745E+02  0.88819194921E+02  0.16586784137E+03  0.19640501147E+03  0.47000000000E+01 0.  1.
         -5    1    4    4    0  501 -0.17925773971E+01  0.11841307372E+03  0.50861276741E+03  0.52223931921E+03  0.47000000000E+01 0.  1.
          1    1    1    2  502    0 -0.26484579302E+02  0.39279156449E+02 -0.60224281961E+03  0.60410321870E+03  0.00000000000E+00 0. -1.
          1    1    1    2  503    0  0.13339646152E+02 -0.63510224962E+02  0.48521941247E+03  0.48953996065E+03  0.00000000000E+00 0. -1.
<mgrwt>
<rscale>  0 0.55180761E+02</rscale>
<asrwt>0</asrwt>
<pdfrwt beam="1">  1        2 0.19344651E+00 0.64274152E+02</pdfrwt>
<pdfrwt beam="2">  1        2 0.11110234E+00 0.47373886E+02</pdfrwt>
<totfact> 0.13585867E+02</totfact>
</mgrwt>
</event>
<event>
13    1  0.2101801E-008  0.6182217E+02  0.7546771E-02  0.1424434E+00
          2   -1    0    0  503    0  0.00000000000E+00  0.00000000000E+00  0.35149481819E+03  0.35149481819E+03  0.00000000000E+00 0. -1.
         -3   -1    0    0    0  501 -0.00000000000E+00 -0.00000000000E+00 -0.21902642085E+04  0.21902642085E+04  0.00000000000E+00 0.  1.
         24    2    1    2    0    0 -0.52900758850E+01  0.24296193773E+02 -0.30182635242E+03  0.30875624225E+03  0.60108070850E+02 0.  0.
         25    2    1    2    0    0  0.27614328369E+02 -0.85524159977E+01  0.19105033157E+02  0.12971440828E+03  0.12500052189E+03 0.  0.
         24    2    1    2    0    0 -0.57876581870E+01 -0.39226766574E+02 -0.76708915629E+03  0.77210040434E+03  0.78364689008E+02 0.  0.
        -13    1    3    3    0    0  0.17236790796E+02 -0.35028681525E+01 -0.20102223558E+03  0.20179027786E+03  0.00000000000E+00 0.  1.
         14    1    3    3    0    0 -0.22526866681E+02  0.27799061925E+02 -0.10080411684E+03  0.10696596439E+03  0.00000000000E+00 0. -1.
        -13    1    5    5    0    0  0.39137057239E+01  0.23665656608E+02 -0.23412879226E+03  0.23535435361E+03  0.00000000000E+00 0.  1.
         14    1    5    5    0    0 -0.97013639109E+01 -0.62892423182E+02 -0.53296036402E+03  0.53674605073E+03  0.00000000000E+00 0. -1.
          5    1    4    4  502    0 -0.45604010817E+02 -0.14865406105E+01  0.30565112991E+02  0.55120338694E+02  0.47000000000E+01 0.  1.
         -5    1    4    4    0  502  0.73218339186E+02 -0.70658753872E+01 -0.11460079834E+02  0.74594069590E+02  0.47000000000E+01 0.  1.
          1    1    1    2  503    0  0.12814378619E+02  0.60615051501E+02  0.26703803516E+03  0.27413081729E+03  0.00000000000E+00 0. -1.
         -4    1    1    2    0  501 -0.29350972916E+02 -0.37132062702E+02 -0.10559969499E+04  0.10570571545E+04  0.00000000000E+00 0.  1.
<mgrwt>
<rscale>  0 0.54093763E+02</rscale>
<asrwt>0</asrwt>
<pdfrwt beam="1">  1        2 0.51690413E-01 0.61822170E+02</pdfrwt>
<pdfrwt beam="2">  1       -3 0.32209769E+00 0.47331487E+02</pdfrwt>
<totfact> 0.23101566E+00</totfact>
</mgrwt>
</event>
<event>
13    1  0.2101801E-008  0.1935519E+03  0.7546771E-02  0.1300535E+00
          2   -1    0    0  503    0  0.00000000000E+00  0.00000000000E+00  0.12219566550E+04  0.12219566550E+04  0.00000000000E+00 0. -1.
          2   -1    0    0  502    0 -0.00000000000E+00 -0.00000000000E+00 -0.32008826153E+04  0.32008826153E+04  0.00000000000E+00 0. -1.
         24    2    1    2    0    0 -0.19030611773E+03 -0.21190044301E+03 -0.23964207740E+03  0.38054445172E+03  0.79167785633E+02 0.  0.
         25    2    1    2    0    0  0.32820741313E+03  0.16619683372E+03 -0.18115572949E+04  0.18527572597E+04  0.12501254814E+03 0.  0.
         24    2    1    2    0    0  0.18093606014E+03  0.10917892223E+03  0.14207727851E+03  0.26737111495E+03  0.81507454405E+02 0.  0.
        -13    1    3    3    0    0 -0.48123865501E+02 -0.10623294172E+03 -0.74705241685E+02  0.13849988257E+03  0.00000000000E+00 0.  1.
         14    1    3    3    0    0 -0.14218225223E+03 -0.10566750128E+03 -0.16493683572E+03  0.24204456915E+03  0.00000000000E+00 0. -1.
        -13    1    5    5    0    0  0.15733391117E+03  0.92878206223E+02  0.80919224041E+02  0.19982052351E+03  0.00000000000E+00 0.  1.
         14    1    5    5    0    0  0.23602148971E+02  0.16300716009E+02  0.61158054466E+02  0.67550591444E+02  0.00000000000E+00 0. -1.
          5    1    4    4  501    0  0.24075028641E+03  0.99039356921E+02 -0.98364973888E+03  0.10175256230E+04  0.47000000000E+01 0. -1.
         -5    1    4    4    0  501  0.87457126721E+02  0.67157476796E+02 -0.82790755603E+03  0.83523163675E+03  0.47000000000E+01 0. -1.
          1    1    1    2  502    0 -0.72305051213E+01 -0.42134189492E+02 -0.96916816188E+03  0.97011055871E+03  0.00000000000E+00 0. -1.
          1    1    1    2  503    0 -0.31160685042E+03 -0.21341123452E+02  0.89936429533E+03  0.95205588517E+03  0.00000000000E+00 0. -1.
<mgrwt>
<rscale>  0 0.90963514E+02</rscale>
<asrwt>0</asrwt>
<pdfrwt beam="1">  1        2 0.17969951E+00 0.19355190E+03</pdfrwt>
<pdfrwt beam="2">  1        2 0.47071802E+00 0.42750089E+02</pdfrwt>
<totfact> 0.86702117E+00</totfact>
</mgrwt>
</event>
<event>
13    1  0.2101801E-008  0.2528144E+03  0.7546771E-02  0.1201384E+00
          2   -1    0    0  502    0  0.00000000000E+00  0.00000000000E+00  0.45435418635E+03  0.45435418635E+03  0.00000000000E+00 0. -1.
          4   -1    0    0  503    0 -0.00000000000E+00 -0.00000000000E+00 -0.60071780247E+03  0.60071780247E+03  0.00000000000E+00 0. -1.
         24    2    1    2    0    0  0.34467562890E+02  0.46639612397E+02 -0.15644915245E+03  0.18447097427E+03  0.78676150840E+02 0.  0.
         25    2    1    2    0    0 -0.92422199122E+02  0.22744799595E+03  0.18041432271E+02  0.27608911127E+03  0.12500100133E+03 0.  0.
         24    2    1    2    0    0 -0.51772523857E+02  0.52711141261E+02 -0.20024549058E+02  0.98881014004E+02  0.62590843786E+02 0.  0.
        -11    1    5    5    0    0 -0.66015946216E+02  0.48188921401E+02 -0.18932657534E+02  0.83897096623E+02  0.00000000000E+00 0.  1.
         12    1    5    5    0    0  0.14243422359E+02  0.45222198604E+01 -0.10918915231E+01  0.14983917380E+02  0.00000000000E+00 0. -1.
        -13    1    3    3    0    0  0.27735695131E+02  0.60139557385E+02 -0.68659909990E+02  0.95395064792E+02  0.00000000000E+00 0.  1.
         14    1    3    3    0    0  0.67318677590E+01 -0.13499944988E+02 -0.87789242461E+02  0.89075909482E+02  0.00000000000E+00 0. -1.
          5    1    4    4  501    0 -0.63095616404E+02  0.18062171518E+03  0.66338209385E+02  0.20255396523E+03  0.47000000000E+01 0. -1.
         -5    1    4    4    0  501 -0.29326582718E+02  0.46826280765E+02 -0.48296777114E+02  0.73535146045E+02  0.47000000000E+01 0. -1.
          1    1    1    2  502    0  0.32662254035E+02 -0.25775790000E+03  0.16733916517E+03  0.30904425905E+03  0.00000000000E+00 0. -1.
          3    1    1    2  503    0  0.77064906054E+02 -0.69040849611E+02 -0.15527051206E+03  0.18658663022E+03  0.00000000000E+00 0. -1.
<mgrwt>
<rscale>  0 0.14926076E+03</rscale>
<asrwt>0</asrwt>
<pdfrwt beam="1">  1        2 0.66816793E-01 0.25281438E+03</pdfrwt>
<pdfrwt beam="2">  1        4 0.88340852E-01 0.88123051E+02</pdfrwt>
<totfact> 0.42030296E+01</totfact>
</mgrwt>
</event>
<event>
13    1  0.2101801E-008  0.1055911E+03  0.7546771E-02  0.1286399E+00
          2   -1    0    0  503    0  0.00000000000E+00  0.00000000000E+00  0.93193900541E+03  0.93193900541E+03  0.00000000000E+00 0. -1.
          2   -1    0    0  502    0 -0.00000000000E+00 -0.00000000000E+00 -0.44391048473E+04  0.44391048473E+04  0.00000000000E+00 0. -1.
         24    2    1    2    0    0 -0.49553861450E+01  0.20983809146E+01 -0.32374097555E+04  0.32383872532E+04  0.79379582435E+02 0.  0.
         25    2    1    2    0    0 -0.76378954961E+02 -0.15594020113E+03 -0.30643648837E+03  0.37373481622E+03  0.12499320127E+03 0.  0.
         24    2    1    2    0    0  0.56110439380E+02 -0.41392690437E+02  0.33717720939E+03  0.35350789429E+03  0.80110077773E+02 0.  0.
        -11    1    3    3    0    0 -0.29246068056E+02 -0.26621549400E+02 -0.20513572312E+04  0.20517384164E+04  0.00000000000E+00 0.  1.
         12    1    3    3    0    0  0.24290681911E+02  0.28719930315E+02 -0.11860525242E+04  0.11866488368E+04  0.00000000000E+00 0. -1.
        -13    1    5    5    0    0  0.41173771224E+02 -0.59279679136E+02  0.16961309018E+03  0.18433111554E+03  0.00000000000E+00 0.  1.
         14    1    5    5    0    0  0.14936668155E+02  0.17886988699E+02  0.16756411921E+03  0.16917677875E+03  0.00000000000E+00 0. -1.
          5    1    4    4  501    0 -0.46050161331E+02 -0.17251573405E+03 -0.26491682052E+03  0.31950791485E+03  0.47000000000E+01 0. -1.
         -5    1    4    4    0  501 -0.30328793630E+02  0.16575532923E+02 -0.41519667850E+02  0.54226901378E+02  0.47000000000E+01 0. -1.
          1    1    1    2  502    0  0.67781346375E+02  0.11664031052E+03 -0.84394801128E+03  0.85466222492E+03  0.00000000000E+00 0. -1.
          1    1    1    2  503    0 -0.42557444649E+02  0.78594200135E+02  0.54345120389E+03  0.55075166400E+03  0.00000000000E+00 0. -1.
<mgrwt>
<rscale>  0 0.97153105E+02</rscale>
<asrwt>0</asrwt>
<pdfrwt beam="1">  1        2 0.13704985E+00 0.89389422E+02</pdfrwt>
<pdfrwt beam="2">  1        2 0.65280953E+00 0.10559108E+03</pdfrwt>
<totfact> 0.17760316E+00</totfact>
</mgrwt>
</event>
<event>
13    1  0.2101801E-008  0.2636954E+03  0.7546771E-02  0.1160300E+00
          2   -1    0    0  503    0  0.00000000000E+00  0.00000000000E+00  0.13058492291E+04  0.13058492291E+04  0.00000000000E+00 0. -1.
         -3   -1    0    0    0  501 -0.00000000000E+00 -0.00000000000E+00 -0.16118559304E+04  0.16118559304E+04  0.00000000000E+00 0.  1.
         24    2    1    2    0    0  0.59996679777E+02  0.28058531928E+02 -0.64131134022E+03  0.64978353035E+03  0.80941450615E+02 0.  0.
         25    2    1    2    0    0 -0.79647416762E+03 -0.17235793903E+03 -0.12837518131E+03  0.83437882754E+03  0.12501792604E+03 0.  0.
         24    2    1    2    0    0  0.10619386020E+03  0.15381146605E+03 -0.58433325750E+02  0.21179865328E+03  0.80679073738E+02 0.  0.
        -11    1    5    5    0    0  0.90871431397E+02  0.15563093726E+03 -0.34758680500E+02  0.18353956398E+03  0.00000000000E+00 0.  1.
         12    1    5    5    0    0  0.15322428807E+02 -0.18194712143E+01 -0.23674645250E+02  0.28259089294E+02  0.00000000000E+00 0. -1.
        -13    1    3    3    0    0  0.45875250457E+02 -0.85542654964E+01 -0.15451764133E+03  0.16141070456E+03  0.00000000000E+00 0.  1.
         14    1    3    3    0    0  0.14121429320E+02  0.36612797424E+02 -0.48679369888E+03  0.48837282579E+03  0.00000000000E+00 0. -1.
          5    1    4    4  502    0 -0.31983591762E+03 -0.19460166962E+02 -0.87149372692E+02  0.33210061044E+03  0.47000000000E+01 0.  1.
         -5    1    4    4    0  502 -0.47663825001E+03 -0.15289777207E+03 -0.41225808615E+02  0.50227821710E+03  0.47000000000E+01 0.  1.
          1    1    1    2  503    0  0.84247401120E+02 -0.10405401542E+03  0.64111929310E+03  0.65494947187E+03  0.00000000000E+00 0. -1.
         -4    1    1    2    0  501  0.54603622652E+03  0.94541956474E+02 -0.11900614716E+03  0.56679467647E+03  0.00000000000E+00 0.  1.
<mgrwt>
<rscale>  0 0.18797561E+03</rscale>
<asrwt>0</asrwt>
<pdfrwt beam="1">  1        2 0.19203665E+00 0.13399867E+03</pdfrwt>
<pdfrwt beam="2">  1       -3 0.23703764E+00 0.26369538E+03</pdfrwt>
<totfact> 0.11652389E+00</totfact>
</mgrwt>
</event>
<event>
13    1  0.2101801E-008  0.8093887E+02  0.7546771E-02  0.1343314E+00
          2   -1    0    0  502    0  0.00000000000E+00  0.00000000000E+00  0.52355611097E+04  0.52355611097E+04  0.00000000000E+00 0. -1.
          2   -1    0    0  503    0 -0.00000000000E+00 -0.00000000000E+00 -0.33122644742E+04  0.33122644742E+04  0.00000000000E+00 0. -1.
         24    2    1    2    0    0  0.42725292520E+03 -0.22314582579E+03  0.49072054548E+03  0.69214817239E+03  0.76963089419E+02 0.  0.
         25    2    1    2    0    0  0.39377226571E+01 -0.20070520015E+02  0.12474297360E+04  0.12538436813E+04  0.12499879736E+03 0.  0.
         24    2    1    2    0    0 -0.40913273085E+03  0.26403600645E+03 -0.28320887547E+03  0.56889389398E+03  0.79551186728E+02 0.  0.
        -11    1    5    5    0    0 -0.22673579677E+03  0.18547201544E+03 -0.19279794916E+03  0.35068509985E+03  0.00000000000E+00 0.  1.
         12    1    5    5    0    0 -0.18239693407E+03  0.78563991004E+02 -0.90410926307E+02  0.21820879413E+03  0.00000000000E+00 0. -1.
        -13    1    3    3    0    0  0.88517102112E+02 -0.13124210017E+02  0.94730003503E+02  0.13031230110E+03  0.00000000000E+00 0.  1.
         14    1    3    3    0    0  0.33873582308E+03 -0.21002161577E+03  0.39599054198E+03  0.56183587129E+03  0.00000000000E+00 0. -1.
          5    1    4    4  501    0  0.28835564639E+01  0.43921878594E+02  0.85971839268E+03  0.86085727681E+03  0.47000000000E+01 0.  1.
         -5    1    4    4    0  501  0.10541661933E+01 -0.63992398609E+02  0.38771134336E+03  0.39298640450E+03  0.47000000000E+01 0.  1.
          1    1    1    2  502    0 -0.38074763380E+02  0.58538257370E+02  0.32496834288E+04  0.32504336330E+04  0.00000000000E+00 0. -1.
          1    1    1    2  503    0  0.16016846375E+02 -0.79357918011E+02 -0.27813281994E+04  0.27825062032E+04  0.00000000000E+00 0. -1.
<mgrwt>
<rscale>  0 0.75180246E+02</rscale>
<asrwt>0</asrwt>
<pdfrwt beam="1">  1        2 0.76993546E+00 0.69831334E+02</pdfrwt>
<pdfrwt beam="2">  1        2 0.48709771E+00 0.80938872E+02</pdfrwt>
<totfact> 0.23064328E-02</totfact>
</mgrwt>
</event>
<event>
13    1  0.2101801E-008  0.1188722E+03  0.7546771E-02  0.1400373E+00
          2   -1    0    0  502    0  0.00000000000E+00  0.00000000000E+00  0.67447774022E+03  0.67447774022E+03  0.00000000000E+00 0. -1.
          2   -1    0    0  503    0 -0.00000000000E+00 -0.00000000000E+00 -0.14755296951E+04  0.14755296951E+04  0.00000000000E+00 0. -1.
         24    2    1    2    0    0  0.38755430717E+02  0.35347692947E+02 -0.21269587481E+03  0.23619662361E+03  0.88305532330E+02 0.  0.
         25    2    1    2    0    0  0.62842939317E+02  0.32880866083E+02  0.28716116491E+03  0.32111657993E+03  0.12499574752E+03 0.  0.
         24    2    1    2    0    0 -0.12432621887E+02  0.74242111848E+02 -0.21525707744E+02  0.11267448485E+03  0.81029144043E+02 0.  0.
        -11    1    3    3    0    0  0.63272536358E+02  0.11696511367E+02 -0.10407722826E+03  0.12236131610E+03  0.00000000000E+00 0.  1.
         12    1    3    3    0    0 -0.24517105641E+02  0.23651181580E+02 -0.10861864655E+03  0.11383530752E+03  0.00000000000E+00 0. -1.
        -13    1    5    5    0    0 -0.36713539842E+02  0.12611088903E+02  0.88269365317E+01  0.39810028631E+02  0.00000000000E+00 0.  1.
         14    1    5    5    0    0  0.24280917955E+02  0.61631022944E+02 -0.30352644275E+02  0.72864456221E+02  0.00000000000E+00 0. -1.
          5    1    4    4  501    0  0.83992588202E+02 -0.14790437986E+02  0.21968756346E+03  0.23570792831E+03  0.47000000000E+01 0.  1.
         -5    1    4    4    0  501 -0.21149648885E+02  0.47671304069E+02  0.67473601456E+02  0.85408651628E+02  0.47000000000E+01 0.  1.
          1    1    1    2  502    0  0.29322241026E+02  0.45983449879E+01  0.30464709730E+03  0.30608951711E+03  0.00000000000E+00 0. -1.
          1    1    1    2  503    0 -0.11848798917E+03 -0.14706901586E+03 -0.11586386345E+04  0.11739302298E+04  0.00000000000E+00 0. -1.
<mgrwt>
<rscale>  0 0.59398655E+02</rscale>
<asrwt>0</asrwt>
<pdfrwt beam="1">  1        2 0.99187905E-01 0.29680610E+02</pdfrwt>
<pdfrwt beam="2">  1        2 0.21698966E+00 0.11887223E+03</pdfrwt>
<totfact> 0.12413165E+02</totfact>
</mgrwt>
</event>
