<event>
13    1  0.1595792E-008  0.6861691E+02  0.7546771E-02  0.1488107E+00
          2   -1    0    0  503    0  0.00000000000E+00  0.00000000000E+00  0.38569449535E+02  0.38569449535E+02  0.00000000000E+00 0. -1.
          2   -1    0    0  502    0 -0.00000000000E+00 -0.00000000000E+00 -0.26803055845E+04  0.26803055845E+04  0.00000000000E+00 0. -1.
         24    2    1    2    0    0 -0.43959496161E+01 -0.72583399088E+02 -0.58678172377E+03  0.59699664163E+03  0.82489542178E+02 0.  0.
         25    2    1    2    0    0 -0.30584017968E+02  0.43231545807E+02 -0.58204454697E+03  0.59766740555E+03  0.12500449707E+03 0.  0.
         24    2    1    2    0    0  0.89005055389E+02  0.33161065831E+02 -0.51420737097E+03  0.52945447150E+03  0.83013618545E+02 0.  0.
        -11    1    3    3    0    0 -0.23657537906E+02 -0.14090040232E+02 -0.53493730473E+02  0.60164670144E+02  0.00000000000E+00 0.  1.
         12    1    3    3    0    0  0.19261588290E+02 -0.58493358856E+02 -0.53328799330E+03  0.53683197148E+03  0.00000000000E+00 0. -1.
        -13    1    5    5    0    0  0.33387694594E+02 -0.70866447308E+00 -0.36664204645E+03  0.36815978947E+03  0.00000000000E+00 0.  1.
         14    1    5    5    0    0  0.55617360795E+02  0.33869730304E+02 -0.14756532452E+03  0.16129468204E+03  0.00000000000E+00 0. -1.
          5    1    4    4  501    0 -0.19352002968E+02 -0.39403249266E+02 -0.11443344652E+03  0.12265488067E+03  0.47000000000E+01 0.  1.
         -5    1    4    4    0  501 -0.11232015000E+02  0.82634795073E+02 -0.46761110045E+03  0.47501252487E+03  0.47000000000E+01 0.  1.
          1    1    1    2  502    0  0.12367238295E+02 -0.23755185023E+02 -0.90914825360E+03  0.90954263475E+03  0.00000000000E+00 0. -1.
          1    1    1    2  503    0 -0.66392326100E+02  0.19945972474E+02 -0.49554239688E+02  0.85213880641E+02  0.00000000000E+00 0. -1.
<mgrwt>
<rscale>  0 0.42868109E+02</rscale>
<asrwt>0</asrwt>
<pdfrwt beam="1">  1        2 0.56719760E-02 0.68616907E+02</pdfrwt>
<pdfrwt beam="2">  1        2 0.39416272E+00 0.26781662E+02</pdfrwt>
<totfact> 0.94915820E+02</totfact>
</mgrwt>
</event>
<event>
13    1  0.1595792E-008  0.9664479E+02  0.7546771E-02  0.1374695E+00
          2   -1    0    0  502    0  0.00000000000E+00  0.00000000000E+00  0.73462331105E+03  0.73462331105E+03  0.00000000000E+00 0. -1.
          2   -1    0    0  503    0 -0.00000000000E+00 -0.00000000000E+00 -0.59663128003E+03  0.59663128003E+03  0.00000000000E+00 0. -1.
         24    2    1    2    0    0  0.33472427227E+01  0.17253421109E+01 -0.62790713001E+02  0.10311566157E+03  0.81706702191E+02 0.  0.
         25    2    1    2    0    0 -0.11383079140E+03  0.71184900245E+02 -0.11562423949E+03  0.21683716362E+03  0.12499860669E+03 0.  0.
         24    2    1    2    0    0  0.91358275869E+02  0.53891625060E+02  0.62176763819E+02  0.14735794999E+03  0.81226680620E+02 0.  0.
        -11    1    3    3    0    0  0.26954822804E+02  0.27286655509E+02 -0.95719580759E+01  0.39531587656E+02  0.00000000000E+00 0.  1.
         12    1    3    3    0    0 -0.23607580081E+02 -0.25561313398E+02 -0.53218754925E+02  0.63584073915E+02  0.00000000000E+00 0. -1.
        -11    1    5    5    0    0 -0.14983894230E+02  0.35891928446E+01  0.11700378650E+02  0.19346789195E+02  0.00000000000E+00 0.  1.
         12    1    5    5    0    0  0.10634217010E+03  0.50302432215E+02  0.50476385168E+02  0.12801116079E+03  0.00000000000E+00 0. -1.
          5    1    4    4  501    0 -0.12321454592E+03  0.26310937635E+02 -0.11514912849E+03  0.17074982155E+03  0.47000000000E+01 0. -1.
         -5    1    4    4    0  501  0.93837545204E+01  0.44873962610E+02 -0.47511100443E+00  0.46087342077E+02  0.47000000000E+01 0. -1.
          1    1    1    2  502    0 -0.12872828181E+02 -0.95293669445E+02  0.55326332588E+03  0.56155756687E+03  0.00000000000E+00 0. -1.
          1    1    1    2  503    0  0.31998100991E+02 -0.31508197971E+02 -0.29903310618E+03  0.30238624902E+03  0.00000000000E+00 0. -1.
<mgrwt>
<rscale>  0 0.65878939E+02</rscale>
<asrwt>0</asrwt>
<pdfrwt beam="1">  1        2 0.10803284E+00 0.96644793E+02</pdfrwt>
<pdfrwt beam="2">  1        2 0.87739894E-01 0.44907071E+02</pdfrwt>
<totfact> 0.37227539E+02</totfact>
</mgrwt>
</event>
<event>
13    1  0.1595792E-008  0.1737536E+03  0.7546771E-02  0.1320333E+00
          2   -1    0    0  503    0  0.00000000000E+00  0.00000000000E+00  0.13335729041E+04  0.13335729041E+04  0.00000000000E+00 0. -1.
          2   -1    0    0  502    0 -0.00000000000E+00 -0.00000000000E+00 -0.21122187337E+04  0.21122187337E+04  0.00000000000E+00 0. -1.
         24    2    1    2    0    0  0.62939186651E+02  0.17215988934E+03 -0.39009173493E+03  0.43558563067E+03  0.62951658167E+02 0.  0.
         25    2    1    2    0    0  0.34540447472E+03 -0.25172147526E+03 -0.67465900767E+03  0.80836945327E+03  0.12501377559E+03 0.  0.
         24    2    1    2    0    0 -0.22862296746E+03 -0.30214313001E+02  0.85658660593E+03  0.89068035262E+03  0.79934417618E+02 0.  0.
        -11    1    5    5    0    0 -0.29040062451E+02 -0.33648030672E+02  0.15258019685E+03  0.15892209307E+03  0.00000000000E+00 0.  1.
         12    1    5    5    0    0 -0.19958290501E+03  0.34337176713E+01  0.70400640908E+03  0.73175825955E+03  0.00000000000E+00 0. -1.
        -11    1    3    3    0    0  0.67328306965E+02  0.12983632927E+03 -0.33826521030E+03  0.36852940970E+03  0.00000000000E+00 0.  1.
         12    1    3    3    0    0 -0.43891203148E+01  0.42323560072E+02 -0.51826524633E+02  0.67056220963E+02  0.00000000000E+00 0. -1.
          5    1    4    4  501    0  0.22787795393E+03 -0.12037399294E+03 -0.48614920005E+03  0.55025575397E+03  0.47000000000E+01 0.  1.
         -5    1    4    4    0  501  0.11752652079E+03 -0.13134748231E+03 -0.18850980762E+03  0.25811369930E+03  0.47000000000E+01 0.  1.
          1    1    1    2  502    0 -0.14085706650E+03  0.10121758514E+03 -0.93172243898E+03  0.94773013882E+03  0.00000000000E+00 0. -1.
          1    1    1    2  503    0 -0.38863627414E+02  0.85583137785E+01  0.36124074602E+03  0.36342606244E+03  0.00000000000E+00 0. -1.
<mgrwt>
<rscale>  0 0.83153419E+02</rscale>
<asrwt>0</asrwt>
<pdfrwt beam="1">  1        2 0.19611366E+00 0.39794802E+02</pdfrwt>
<pdfrwt beam="2">  1        2 0.31062040E+00 0.17375362E+03</pdfrwt>
<totfact> 0.24621316E+01</totfact>
</mgrwt>
</event>
<event>
13    1  0.1595792E-008  0.5670656E+02  0.7546771E-02  0.1443232E+00
          2   -1    0    0  502    0  0.00000000000E+00  0.00000000000E+00  0.15018041265E+04  0.15018041265E+04  0.00000000000E+00 0. -1.
          2   -1    0    0  503    0 -0.00000000000E+00 -0.00000000000E+00 -0.32559911219E+03  0.32559911219E+03  0.00000000000E+00 0. -1.
         24    2    1    2    0    0 -0.60260525423E+02  0.21048595388E+03 -0.15380096781E+03  0.28074128730E+03  0.85001558759E+02 0.  0.
         25    2    1    2    0    0  0.35706823409E+02 -0.20070307376E+03  0.36203500002E+03  0.43387934092E+03  0.12500096073E+03 0.  0.
         24    2    1    2    0    0  0.14129757249E+02  0.40105469866E+02  0.25797359255E+03  0.27267313872E+03  0.77409091007E+02 0.  0.
        -11    1    3    3    0    0 -0.76636363329E+02  0.16465103763E+03 -0.96841668706E+02  0.20581886496E+03  0.00000000000E+00 0.  1.
         12    1    3    3    0    0  0.16375837906E+02  0.45834916251E+02 -0.56959299100E+02  0.74922422337E+02  0.00000000000E+00 0. -1.
        -11    1    5    5    0    0  0.16711704704E+02  0.48224350141E+02  0.82621930260E+02  0.97114635254E+02  0.00000000000E+00 0.  1.
         12    1    5    5    0    0 -0.25819474548E+01 -0.81188802751E+01  0.17535166229E+03  0.17555850346E+03  0.00000000000E+00 0. -1.
          5    1    4    4  501    0  0.70063692870E+02 -0.13487997210E+03  0.30258244530E+03  0.33864399321E+03  0.47000000000E+01 0. -1.
         -5    1    4    4    0  501 -0.34356869461E+02 -0.65823101660E+02  0.59452554721E+02  0.95235347713E+02  0.47000000000E+01 0. -1.
          1    1    1    2  502    0  0.44591292427E+02 -0.41354745083E+01  0.76173736613E+03  0.76305261973E+03  0.00000000000E+00 0. -1.
          1    1    1    2  503    0 -0.34167347663E+02 -0.45752875476E+02 -0.51739976604E+02  0.77056851997E+02  0.00000000000E+00 0. -1.
<mgrwt>
<rscale>  0 0.50393152E+02</rscale>
<asrwt>0</asrwt>
<pdfrwt beam="1">  1        2 0.22085354E+00 0.44782647E+02</pdfrwt>
<pdfrwt beam="2">  1        2 0.47882223E-01 0.56706557E+02</pdfrwt>
<totfact> 0.27571424E+02</totfact>
</mgrwt>
</event>
<event>
13    1  0.1595792E-008  0.2345598E+03  0.7546771E-02  0.1130751E+00
          2   -1    0    0  503    0  0.00000000000E+00  0.00000000000E+00  0.25016356778E+04  0.25016356778E+04  0.00000000000E+00 0. -1.
          2   -1    0    0  502    0 -0.00000000000E+00 -0.00000000000E+00 -0.12736853194E+04  0.12736853194E+04  0.00000000000E+00 0. -1.
         24    2    1    2    0    0 -0.32846893368E+03  0.23139286402E+03  0.23538328048E+03  0.47238965582E+03  0.79449356719E+02 0.  0.
         25    2    1    2    0    0  0.67436335761E+02 -0.21160050754E+03  0.17544508500E+03  0.30940465613E+03  0.12501131634E+03 0.  0.
         24    2    1    2    0    0  0.23999757473E+03  0.93203935277E+01  0.33996667144E+03  0.42352756945E+03  0.78182854745E+02 0.  0.
        -11    1    5    5    0    0  0.31352242921E+02  0.22294385463E+02  0.88606585807E+02  0.96597773306E+02  0.00000000000E+00 0.  1.
         12    1    5    5    0    0  0.20864533181E+03 -0.12973991935E+02  0.25136008564E+03  0.32692979614E+03  0.00000000000E+00 0. -1.
        -11    1    3    3    0    0 -0.66360173887E+00  0.10760732247E+02 -0.26377978712E+01  0.11099175797E+02  0.00000000000E+00 0.  1.
         12    1    3    3    0    0 -0.32780533194E+03  0.22063213177E+03  0.23802107835E+03  0.46129048002E+03  0.00000000000E+00 0. -1.
          5    1    4    4  501    0  0.23057723262E+02 -0.19016694400E+03  0.92422720878E+02  0.21274203752E+03  0.47000000000E+01 0. -1.
         -5    1    4    4    0  501  0.44378612499E+02 -0.21433563544E+02  0.83022364117E+02  0.96662618613E+02  0.47000000000E+01 0. -1.
          1    1    1    2  502    0  0.23393734343E+03 -0.38078526177E+01 -0.10256394078E+04  0.10519873456E+04  0.00000000000E+00 0. -1.
          1    1    1    2  503    0 -0.21290232024E+03 -0.25304897388E+02  0.15027947293E+04  0.15180117702E+04  0.00000000000E+00 0. -1.
<mgrwt>
<rscale>  0 0.22425392E+03</rscale>
<asrwt>0</asrwt>
<pdfrwt beam="1">  1        2 0.36788760E+00 0.21440088E+03</pdfrwt>
<pdfrwt beam="2">  1        2 0.18730667E+00 0.23455978E+03</pdfrwt>
<totfact> 0.14618056E+01</totfact>
</mgrwt>
</event>
<event>
13    1  0.1595792E-008  0.1510622E+03  0.7546771E-02  0.1255274E+00
         -1   -1    0    0    0  501 -0.00000000000E+00  0.00000000000E+00  0.19381767460E+03  0.19381767460E+03  0.00000000000E+00 0.  1.
          2   -1    0    0  503    0  0.00000000000E+00 -0.00000000000E+00 -0.34654666753E+04  0.34654666753E+04  0.00000000000E+00 0. -1.
         24    2    1    2    0    0 -0.10423004969E+03  0.10779839405E+03 -0.27523852505E+02  0.17222026166E+03  0.80111541304E+02 0.  0.
         25    2    1    2    0    0 -0.13140349732E+03 -0.51349779734E+02 -0.96920616565E+03  0.98736463440E+03  0.12499860300E+03 0.  0.
         24    2    1    2    0    0  0.77181004905E+01 -0.15000087058E+02 -0.41953344388E+03  0.42714752208E+03  0.78499193645E+02 0.  0.
        -11    1    3    3    0    0 -0.17179768374E+02  0.85010368383E+01  0.23787813916E+02  0.30549503427E+02  0.00000000000E+00 0.  1.
         12    1    3    3    0    0 -0.87050281319E+02  0.99297357213E+02 -0.51311666421E+02  0.14167075823E+03  0.00000000000E+00 0. -1.
        -11    1    5    5    0    0  0.26343305955E+02  0.24439310922E+02 -0.21870286743E+03  0.22163527226E+03  0.00000000000E+00 0.  1.
         12    1    5    5    0    0 -0.18625205465E+02 -0.39439397980E+02 -0.20083057645E+03  0.20551224983E+03  0.00000000000E+00 0. -1.
          5    1    4    4  502    0 -0.26367492292E+02 -0.75764082550E+02 -0.39170942922E+03  0.39986723771E+03  0.47000000000E+01 0.  1.
         -5    1    4    4    0  502 -0.10503600503E+03  0.24414302816E+02 -0.57749673643E+03  0.58749739669E+03  0.47000000000E+01 0.  1.
          1    1    1    2  503    0  0.83427214195E+02  0.18220393971E+02 -0.19062493473E+04  0.19081610668E+04  0.00000000000E+00 0. -1.
         -2    1    1    2    0  501  0.14448823233E+03 -0.59668921232E+02  0.50863808638E+02  0.16439086492E+03  0.00000000000E+00 0.  1.
<mgrwt>
<rscale>  0 0.11290997E+03</rscale>
<asrwt>0</asrwt>
<pdfrwt beam="2">  1        2 0.50962743E+00 0.84393442E+02</pdfrwt>
<pdfrwt beam="1">  1       -1 0.28502600E-01 0.15106224E+03</pdfrwt>
<totfact> 0.20800648E+01</totfact>
</mgrwt>
</event>
<event>
13    1  0.1595792E-008  0.8931519E+02  0.7546771E-02  0.1337249E+00
          2   -1    0    0  502    0  0.00000000000E+00  0.00000000000E+00  0.11493090390E+04  0.11493090390E+04  0.00000000000E+00 0. -1.
          2   -1    0    0  503    0 -0.00000000000E+00 -0.00000000000E+00 -0.24715433910E+04  0.24715433910E+04  0.00000000000E+00 0. -1.
         24    2    1    2    0    0 -0.12142620877E+03 -0.18136191682E+03 -0.17814624184E+03  0.29282471682E+03  0.79835845649E+02 0.  0.
         25    2    1    2    0    0  0.14969170839E+03  0.22269764956E+03  0.68496296462E+02  0.30384312703E+03  0.12500820986E+03 0.  0.
         24    2    1    2    0    0  0.20141557908E+01 -0.92751926446E+02  0.53274051879E+03  0.54667026939E+03  0.80180710807E+02 0.  0.
        -13    1    5    5    0    0 -0.43084612792E+01 -0.83274016317E+02  0.24686019797E+03  0.26056300961E+03  0.00000000000E+00 0.  1.
         14    1    5    5    0    0  0.63226170700E+01 -0.94779101286E+01  0.28588032082E+03  0.28610725978E+03  0.00000000000E+00 0. -1.
        -13    1    3    3    0    0 -0.19532937626E+02 -0.87150672557E+02 -0.43028801604E+02  0.99137546605E+02  0.00000000000E+00 0.  1.
         14    1    3    3    0    0 -0.10189327115E+03 -0.94211244259E+02 -0.13511744023E+03  0.19368717021E+03  0.00000000000E+00 0. -1.
          5    1    4    4  501    0  0.12981326217E+03  0.19166203702E+03  0.65712635719E+01  0.23162705147E+03  0.47000000000E+01 0. -1.
         -5    1    4    4    0  501  0.19878446220E+02  0.31035612544E+02  0.61925032890E+02  0.72216075555E+02  0.47000000000E+01 0. -1.
          1    1    1    2  502    0  0.57380823984E+02  0.33993289314E+02  0.36210211541E+03  0.36819294488E+03  0.00000000000E+00 0. -1.
          1    1    1    2  503    0 -0.87660479393E+02  0.17422904387E+02 -0.21074270408E+04  0.21093213718E+04  0.00000000000E+00 0. -1.
<mgrwt>
<rscale>  0 0.77180283E+02</rscale>
<asrwt>0</asrwt>
<pdfrwt beam="1">  1        2 0.16901604E+00 0.66694098E+02</pdfrwt>
<pdfrwt beam="2">  1        2 0.36346225E+00 0.89315190E+02</pdfrwt>
<totfact> 0.21184672E+01</totfact>
</mgrwt>
</event>
<event>
13    1  0.1595792E-008  0.1186047E+03  0.7546771E-02  0.1403131E+00
          2   -1    0    0  503    0  0.00000000000E+00  0.00000000000E+00  0.20316130057E+04  0.20316130057E+04  0.00000000000E+00 0. -1.
          2   -1    0    0  502    0 -0.00000000000E+00 -0.00000000000E+00 -0.23734752911E+04  0.23734752911E+04  0.00000000000E+00 0. -1.
         24    2    1    2    0    0 -0.10972309812E+03  0.10192087060E+03  0.15061468038E+03  0.22734403807E+03  0.81077170512E+02 0.  0.
         25    2    1    2    0    0  0.69340445772E+02 -0.15252953572E+03  0.19876053367E+03  0.28845082977E+03  0.12499909905E+03 0.  0.
         24    2    1    2    0    0  0.92696569052E+02  0.13744595653E+03  0.28486659157E+03  0.33911818844E+03  0.79800537947E+02 0.  0.
        -11    1    5    5    0    0  0.30974524755E+02 -0.22780890161E+01  0.42667288661E+02  0.52774126189E+02  0.00000000000E+00 0.  1.
         12    1    5    5    0    0  0.61722044297E+02  0.13972404554E+03  0.24219930291E+03  0.28634406225E+03  0.00000000000E+00 0. -1.
        -13    1    3    3    0    0 -0.32527720636E+01  0.73418713258E+01  0.55527974088E+02  0.56105610299E+02  0.00000000000E+00 0.  1.
         14    1    3    3    0    0 -0.10647032606E+03  0.94578999274E+02  0.95086706287E+02  0.17123842777E+03  0.00000000000E+00 0. -1.
          5    1    4    4  501    0  0.51936507735E+02 -0.53422317959E+02  0.16683916036E+03  0.18278057972E+03  0.47000000000E+01 0. -1.
         -5    1    4    4    0  501  0.17403938036E+02 -0.99107217764E+02  0.31921373308E+02  0.10567025005E+03  0.47000000000E+01 0. -1.
          1    1    1    2  502    0 -0.81415602755E+02 -0.86303316051E+02 -0.22614197868E+04  0.22645300208E+04  0.00000000000E+00 0. -1.
          1    1    1    2  503    0  0.29101686052E+02 -0.53397535313E+00  0.12853156958E+04  0.12856452198E+04  0.00000000000E+00 0. -1.
<mgrwt>
<rscale>  0 0.58755243E+02</rscale>
<asrwt>0</asrwt>
<pdfrwt beam="1">  1        2 0.29876662E+00 0.29106584E+02</pdfrwt>
<pdfrwt beam="2">  1        2 0.34904048E+00 0.11860473E+03</pdfrwt>
<totfact> 0.93744991E+00</totfact>
</mgrwt>
</event>
<event>
13    1  0.1595792E-008  0.4171307E+02  0.7546771E-02  0.1583634E+00
          2   -1    0    0  503    0  0.00000000000E+00  0.00000000000E+00  0.11773569568E+04  0.11773569568E+04  0.00000000000E+00 0. -1.
         -1   -1    0    0    0  501 -0.00000000000E+00 -0.00000000000E+00 -0.45048782035E+03  0.45048782035E+03  0.00000000000E+00 0.  1.
         24    2    1    2    0    0 -0.88777189507E+02 -0.52074421678E+02  0.22353394950E+02  0.13591322624E+03  0.85904575152E+02 0.  0.
         25    2    1    2    0    0  0.78150483520E+01  0.30078475240E+02  0.26225269399E+02  0.13144391248E+03  0.12499579081E+03 0.  0.
         24    2    1    2    0    0  0.48250567867E+02  0.58449195760E+02  0.94879278762E+03  0.95499515496E+03  0.77868904974E+02 0.  0.
        -11    1    3    3    0    0 -0.79213595935E+02 -0.22329432574E+01 -0.27511284387E+01  0.79292802474E+02  0.00000000000E+00 0.  1.
         12    1    3    3    0    0 -0.95635935724E+01 -0.49841478421E+02  0.25104523389E+02  0.56620423769E+02  0.00000000000E+00 0. -1.
        -13    1    5    5    0    0  0.41049357681E+02  0.77129663419E+02  0.82214547931E+03  0.82677519550E+03  0.00000000000E+00 0.  1.
         14    1    5    5    0    0  0.72012101857E+01 -0.18680467660E+02  0.12664730831E+03  0.12821995945E+03  0.00000000000E+00 0. -1.
          5    1    4    4  502    0 -0.56683691292E+02  0.16254371828E+02 -0.28052437875E+01  0.59221658663E+02  0.47000000000E+01 0. -1.
         -5    1    4    4    0  502  0.64498739644E+02  0.13824103411E+02  0.29030513187E+02  0.72222253819E+02  0.47000000000E+01 0. -1.
          1    1    1    2  503    0 -0.66348719362E+01 -0.22607098441E+02  0.64103862127E+02  0.68296468174E+02  0.00000000000E+00 0. -1.
         -2    1    1    2    0  501  0.39346445225E+02 -0.13846150880E+02 -0.33460617762E+03  0.33719601532E+03  0.00000000000E+00 0.  1.
<mgrwt>
<rscale>  0 0.31349410E+02</rscale>
<asrwt>0</asrwt>
<pdfrwt beam="1">  1        2 0.17314073E+00 0.23560612E+02</pdfrwt>
<pdfrwt beam="2">  1       -1 0.66248209E-01 0.41713074E+02</pdfrwt>
<totfact> 0.73358240E+01</totfact>
</mgrwt>
</event>
<event>
13    1  0.1595792E-008  0.1264693E+03  0.7546771E-02  0.1478908E+00
          2   -1    0    0  502    0  0.00000000000E+00  0.00000000000E+00  0.23085157569E+04  0.23085157569E+04  0.00000000000E+00 0. -1.
          2   -1    0    0  503    0 -0.00000000000E+00 -0.00000000000E+00 -0.18068889055E+03  0.18068889055E+03  0.00000000000E+00 0. -1.
         24    2    1    2    0    0 -0.11618083024E+02 -0.13469970347E+02  0.20833241227E+02  0.85937392342E+02  0.81454229530E+02 0.  0.
         25    2    1    2    0    0  0.71885928228E+02 -0.12145410059E+03  0.12454171486E+03  0.22596082673E+03  0.12501588398E+03 0.  0.
         24    2    1    2    0    0  0.74984686652E+02  0.50767612729E+02  0.37358619962E+03  0.39266428881E+03  0.80115800106E+02 0.  0.
        -11    1    5    5    0    0  0.85651159142E+02  0.22318116145E+02  0.24381858984E+03  0.25938720887E+03  0.00000000000E+00 0.  1.
         12    1    5    5    0    0 -0.10666472490E+02  0.28449496584E+02  0.12976760978E+03  0.13327707994E+03  0.00000000000E+00 0. -1.
        -13    1    3    3    0    0 -0.31056135479E+02 -0.29247494740E+02  0.36719601089E+02  0.56287019850E+02  0.00000000000E+00 0.  1.
         14    1    3    3    0    0  0.19438052455E+02  0.15777524393E+02 -0.15886359863E+02  0.29650372492E+02  0.00000000000E+00 0. -1.
          5    1    4    4  501    0  0.62189830642E+02 -0.13329857656E+03  0.59103341479E+02  0.15859186777E+03  0.47000000000E+01 0. -1.
         -5    1    4    4    0  501  0.96960975861E+01  0.11844475974E+02  0.65438373386E+02  0.67368958956E+02  0.47000000000E+01 0. -1.
          1    1    1    2  502    0 -0.12092950392E+03  0.78228681230E+02  0.16929881330E+04  0.16991034371E+04  0.00000000000E+00 0. -1.
          1    1    1    2  503    0 -0.14323027932E+02  0.59277769781E+01 -0.84122422386E+02  0.85538702452E+02  0.00000000000E+00 0. -1.
<mgrwt>
<rscale>  0 0.44276723E+02</rscale>
<asrwt>0</asrwt>
<pdfrwt beam="1">  1        2 0.33948759E+00 0.12646933E+03</pdfrwt>
<pdfrwt beam="2">  1        2 0.26571897E-01 0.15501215E+02</pdfrwt>
<totfact> 0.17823239E+02</totfact>
</mgrwt>
</event>
<event>
13    1  0.1595792E-008  0.1224505E+03  0.7546771E-02  0.1307237E+00
         -1   -1    0    0    0  501 -0.00000000000E+00  0.00000000000E+00  0.31805625563E+03  0.31805625563E+03  0.00000000000E+00 0.  1.
          2   -1    0    0  503    0  0.00000000000E+00 -0.00000000000E+00 -0.11384328725E+04  0.11384328725E+04  0.00000000000E+00 0. -1.
         24    2    1    2    0    0  0.33441820747E+02  0.12483899023E+02 -0.30680807799E+02  0.94383835647E+02  0.81809494282E+02 0.  0.
         25    2    1    2    0    0 -0.63492553846E+02  0.16189588970E+03 -0.23171457059E+03  0.31553115159E+03  0.12500672743E+03 0.  0.
         24    2    1    2    0    0 -0.48782708903E+00 -0.98586111463E+02 -0.13234170555E+03  0.18373556481E+03  0.80777295082E+02 0.  0.
        -11    1    5    5    0    0 -0.20896185503E+01 -0.11029197936E+03 -0.98491212429E+02  0.14788240647E+03  0.00000000000E+00 0.  1.
         12    1    5    5    0    0  0.16017914612E+01  0.11705867895E+02 -0.33850493116E+02  0.35853158344E+02  0.00000000000E+00 0. -1.
        -13    1    3    3    0    0 -0.19815004099E+02  0.24713618119E+02  0.81959383379E-01  0.31676553243E+02  0.00000000000E+00 0.  1.
         14    1    3    3    0    0  0.53256824846E+02 -0.12229719096E+02 -0.30762767182E+02  0.62707282405E+02  0.00000000000E+00 0. -1.
          5    1    4    4  502    0 -0.10435723143E+01 -0.37720651249E+01  0.12464133473E+02  0.13883880643E+02  0.47000000000E+01 0.  1.
         -5    1    4    4    0  502 -0.62448981532E+02  0.16566795482E+03 -0.24417870407E+03  0.30164727095E+03  0.47000000000E+01 0.  1.
          1    1    1    2  503    0 -0.63362548546E+02  0.48636166067E+01 -0.62497354938E+03  0.62819615149E+03  0.00000000000E+00 0. -1.
         -2    1    1    2    0  501  0.93901108734E+02 -0.80657293866E+02  0.19933401649E+03  0.23464242456E+03  0.00000000000E+00 0.  1.
<mgrwt>
<rscale>  0 0.88213374E+02</rscale>
<asrwt>0</asrwt>
<pdfrwt beam="2">  1        2 0.16741660E+00 0.63548936E+02</pdfrwt>
<pdfrwt beam="1">  1       -1 0.46772980E-01 0.12245050E+03</pdfrwt>
<totfact> 0.13547576E+02</totfact>
</mgrwt>
</event>
<event>
13    1  0.1595792E-008  0.1058216E+03  0.7546771E-02  0.1314023E+00
          2   -1    0    0  502    0  0.00000000000E+00  0.00000000000E+00  0.58539354518E+03  0.58539354518E+03  0.00000000000E+00 0. -1.
          2   -1    0    0  503    0 -0.00000000000E+00 -0.00000000000E+00 -0.11030014627E+04  0.11030014627E+04  0.00000000000E+00 0. -1.
         24    2    1    2    0    0 -0.52934068849E+02 -0.54140972389E+02 -0.50235843835E+02  0.12225694243E+03  0.81791560875E+02 0.  0.
         25    2    1    2    0    0 -0.14834318386E+03  0.12261459801E+03 -0.13178384540E+02  0.22986748252E+03  0.12500139943E+03 0.  0.
         24    2    1    2    0    0  0.77223034011E+02  0.56944458020E+01 -0.10940522908E+02  0.10636817655E+03  0.72101804741E+02 0.  0.
        -13    1    5    5    0    0  0.75563102400E+02 -0.10842177006E+02  0.12785487010E+02  0.77400283750E+02  0.00000000000E+00 0.  1.
         14    1    5    5    0    0  0.16599316106E+01  0.16536622808E+02 -0.23726009917E+02  0.28967892803E+02  0.00000000000E+00 0. -1.
        -13    1    3    3    0    0  0.55063618044E+01  0.95812969190E+01 -0.32050889882E+02  0.33902519275E+02  0.00000000000E+00 0.  1.
         14    1    3    3    0    0 -0.58440430653E+02 -0.63722269308E+02 -0.18184953953E+02  0.88354423155E+02  0.00000000000E+00 0. -1.
          5    1    4    4  501    0 -0.30303050162E+02  0.10581108717E+03 -0.67473222002E+01  0.11037154241E+03  0.47000000000E+01 0. -1.
         -5    1    4    4    0  501 -0.11804013370E+03  0.16803510844E+02 -0.64310623401E+01  0.11949594011E+03  0.47000000000E+01 0. -1.
          1    1    1    2  502    0  0.18921360268E+02 -0.66508479746E+02  0.38692680009E+03  0.39305692257E+03  0.00000000000E+00 0. -1.
          1    1    1    2  503    0  0.10513285843E+03 -0.76595916818E+01 -0.83017996632E+03  0.83684548380E+03  0.00000000000E+00 0. -1.
<mgrwt>
<rscale>  0 0.85541302E+02</rscale>
<asrwt>0</asrwt>
<pdfrwt beam="1">  1        2 0.86087287E-01 0.69147637E+02</pdfrwt>
<pdfrwt beam="2">  1        2 0.16220610E+00 0.10582161E+03</pdfrwt>
<totfact> 0.22405478E+02</totfact>
</mgrwt>
</event>
<event>
13    1  0.1595792E-008  0.6750886E+02  0.7546771E-02  0.1594796E+00
          2   -1    0    0  502    0  0.00000000000E+00  0.00000000000E+00  0.58137196881E+03  0.58137196881E+03  0.00000000000E+00 0. -1.
          2   -1    0    0  503    0 -0.00000000000E+00 -0.00000000000E+00 -0.13771608009E+04  0.13771608009E+04  0.00000000000E+00 0. -1.
         24    2    1    2    0    0  0.21858654777E+03 -0.41986529056E+02 -0.56246644884E+03  0.60978947793E+03  0.77017879937E+02 0.  0.
         25    2    1    2    0    0 -0.20643566055E+03 -0.12571708346E+03 -0.16223724717E+03  0.31680758829E+03  0.12500262641E+03 0.  0.
         24    2    1    2    0    0  0.11273704289E+02  0.11704702830E+03 -0.14613846023E+03  0.20444268685E+03  0.81321949098E+02 0.  0.
        -11    1    3    3    0    0  0.62946181306E+02  0.22749344338E+02 -0.16451391360E+03  0.17760794514E+03  0.00000000000E+00 0.  1.
         12    1    3    3    0    0  0.15564036647E+03 -0.64735873394E+02 -0.39795253524E+03  0.43218153279E+03  0.00000000000E+00 0. -1.
        -11    1    5    5    0    0  0.77788317756E+01  0.16238760588E+01  0.83756396230E+01  0.11545498532E+02  0.00000000000E+00 0.  1.
         12    1    5    5    0    0  0.34948725134E+01  0.11542315224E+03 -0.15451409985E+03  0.19289718832E+03  0.00000000000E+00 0. -1.
          5    1    4    4  501    0 -0.98831632106E+02 -0.53000073989E+02 -0.14847106085E+03  0.18612481096E+03  0.47000000000E+01 0. -1.
         -5    1    4    4    0  501 -0.10760402845E+03 -0.72717009469E+02 -0.13766186322E+02  0.13068277733E+03  0.47000000000E+01 0. -1.
          1    1    1    2  502    0 -0.35031387073E+02  0.57743889510E+02  0.44862169995E+03  0.45367718096E+03  0.00000000000E+00 0. -1.
          1    1    1    2  503    0  0.11606795566E+02 -0.70873052999E+01 -0.37356837582E+03  0.37381583569E+03  0.00000000000E+00 0. -1.
<mgrwt>
<rscale>  0 0.30299995E+02</rscale>
<asrwt>0</asrwt>
<pdfrwt beam="1">  1        2 0.85495879E-01 0.67508857E+02</pdfrwt>
<pdfrwt beam="2">  1        2 0.20252364E+00 0.13599544E+02</pdfrwt>
<totfact> 0.18982472E+02</totfact>
</mgrwt>
</event>
<event>
13    1  0.1595792E-008  0.6020331E+02  0.7546771E-02  0.1494869E+00
          2   -1    0    0  502    0  0.00000000000E+00  0.00000000000E+00  0.35922559042E+04  0.35922559042E+04  0.00000000000E+00 0. -1.
          2   -1    0    0  503    0 -0.00000000000E+00 -0.00000000000E+00 -0.18550227250E+04  0.18550227250E+04  0.00000000000E+00 0. -1.
         24    2    1    2    0    0  0.35093831844E+02  0.37898057914E+02 -0.29104165530E+03  0.30626741965E+03  0.80166373180E+02 0.  0.
         25    2    1    2    0    0 -0.51522739584E+02  0.12752795488E+02 -0.37851839578E+03  0.40214235370E+03  0.12500028081E+03 0.  0.
         24    2    1    2    0    0  0.39983633039E+02 -0.14310138897E+02  0.81191356392E+01  0.93114577577E+02  0.82467770720E+02 0.  0.
        -13    1    5    5    0    0  0.63285817577E+02  0.16460444685E+01  0.12516318739E+02  0.64532646029E+02  0.00000000000E+00 0.  1.
         14    1    5    5    0    0 -0.23302184537E+02 -0.15956183365E+02 -0.43971830993E+01  0.28581931548E+02  0.00000000000E+00 0. -1.
        -13    1    3    3    0    0  0.47303596426E+02  0.42519131671E+02 -0.13028644187E+03  0.14498297737E+03  0.00000000000E+00 0.  1.
         14    1    3    3    0    0 -0.12209764582E+02 -0.46210737569E+01 -0.16075521343E+03  0.16128444227E+03  0.00000000000E+00 0. -1.
          5    1    4    4  501    0  0.17367456185E+02  0.51417189324E+02 -0.19080519523E+03  0.19842900095E+03  0.47000000000E+01 0. -1.
         -5    1    4    4    0  501 -0.68890195769E+02 -0.38664393836E+02 -0.18771320055E+03  0.20371335274E+03  0.47000000000E+01 0. -1.
          1    1    1    2  502    0  0.28558762961E+02 -0.57031124189E+01  0.35213407689E+04  0.35214611938E+04  0.00000000000E+00 0. -1.
          1    1    1    2  503    0 -0.52113488262E+02 -0.30637602086E+02 -0.11226666743E+04  0.11242930845E+04  0.00000000000E+00 0. -1.
<mgrwt>
<rscale>  0 0.41872181E+02</rscale>
<asrwt>0</asrwt>
<pdfrwt beam="1">  1        2 0.52827293E+00 0.29122645E+02</pdfrwt>
<pdfrwt beam="2">  1        2 0.27279746E+00 0.60203308E+02</pdfrwt>
<totfact> 0.30280087E+00</totfact>
</mgrwt>
</event>
<event>
13    1  0.1595792E-008  0.4672296E+02  0.7546771E-02  0.1480662E+00
          2   -1    0    0  503    0  0.00000000000E+00  0.00000000000E+00  0.14988489206E+04  0.14988489206E+04  0.00000000000E+00 0. -1.
          2   -1    0    0  502    0 -0.00000000000E+00 -0.00000000000E+00 -0.67156030536E+03  0.67156030536E+03  0.00000000000E+00 0. -1.
         24    2    1    2    0    0 -0.17630893926E+03 -0.48759453259E+02 -0.19276084782E+03  0.27842514348E+03  0.83075205215E+02 0.  0.
         25    2    1    2    0    0  0.17758025082E+03  0.24885712177E+02  0.24061973978E+03  0.32507936925E+03  0.12499877193E+03 0.  0.
         24    2    1    2    0    0  0.20355849705E+02  0.59579338815E+02  0.16762965840E+03  0.19633536477E+03  0.80522138906E+02 0.  0.
        -11    1    5    5    0    0  0.36813460898E+01  0.71474210420E+02  0.84577079226E+02  0.11079439243E+03  0.00000000000E+00 0.  1.
         12    1    5    5    0    0  0.16674503615E+02 -0.11894871605E+02  0.83052579174E+02  0.85540972339E+02  0.00000000000E+00 0. -1.
        -13    1    3    3    0    0 -0.14285527853E+03 -0.11278938591E+02 -0.10627872882E+03  0.17840967815E+03  0.00000000000E+00 0.  1.
         14    1    3    3    0    0 -0.33453660728E+02 -0.37480514667E+02 -0.86482119006E+02  0.10001546532E+03  0.00000000000E+00 0. -1.
          5    1    4    4  501    0  0.17864900295E+03  0.21354525299E+02  0.25349157671E+03  0.31088832637E+03  0.47000000000E+01 0. -1.
         -5    1    4    4    0  501 -0.10687521334E+01  0.35311868783E+01 -0.12871836934E+02  0.14191042877E+02  0.47000000000E+01 0. -1.
          1    1    1    2  502    0  0.25061335722E+02 -0.33005263070E+02 -0.37769900783E+03  0.37996573327E+03  0.00000000000E+00 0. -1.
          1    1    1    2  503    0 -0.46688496987E+02 -0.27003346634E+01  0.98949907274E+03  0.99060361523E+03  0.00000000000E+00 0. -1.
<mgrwt>
<rscale>  0 0.44003191E+02</rscale>
<asrwt>0</asrwt>
<pdfrwt beam="1">  1        2 0.22041896E+00 0.46722960E+02</pdfrwt>
<pdfrwt beam="2">  1        2 0.98758869E-01 0.41441741E+02</pdfrwt>
<totfact> 0.12970410E+02</totfact>
</mgrwt>
</event>
<event>
13    1  0.1595792E-008  0.1956037E+03  0.7546771E-02  0.1365153E+00
          2   -1    0    0  503    0  0.00000000000E+00  0.00000000000E+00  0.73187109894E+03  0.73187109894E+03  0.00000000000E+00 0. -1.
         -1   -1    0    0    0  501 -0.00000000000E+00 -0.00000000000E+00 -0.12978177908E+04  0.12978177908E+04  0.00000000000E+00 0.  1.
         24    2    1    2    0    0  0.21484264752E+03 -0.20483599950E+03 -0.68681606505E+03  0.75346290140E+03  0.88740558366E+02 0.  0.
         25    2    1    2    0    0  0.76847417999E+02  0.27659801722E+03 -0.10015599556E+03  0.32873521525E+03  0.12499451794E+03 0.  0.
         24    2    1    2    0    0 -0.11923329255E+03 -0.42848859272E+02  0.12135446364E+02  0.15009881936E+03  0.79559937923E+02 0.  0.
        -11    1    3    3    0    0  0.18445645299E+03 -0.20290930644E+03 -0.56686742315E+03  0.62971028666E+03  0.00000000000E+00 0.  1.
         12    1    3    3    0    0  0.30386194522E+02 -0.19266930611E+01 -0.11994864189E+03  0.12375261474E+03  0.00000000000E+00 0. -1.
        -13    1    5    5    0    0 -0.11840657503E+03 -0.57964888643E+02  0.19493391975E+02  0.13326679128E+03  0.00000000000E+00 0.  1.
         14    1    5    5    0    0 -0.82671751411E+00  0.15116029371E+02 -0.73579456111E+01  0.16832028084E+02  0.00000000000E+00 0. -1.
          5    1    4    4  502    0 -0.27471114511E+02  0.23188830473E+02 -0.26564100226E+02  0.44945805277E+02  0.47000000000E+01 0. -1.
         -5    1    4    4    0  502  0.10431853251E+03  0.25340918674E+03 -0.73591895335E+02  0.28378940997E+03  0.47000000000E+01 0. -1.
          1    1    1    2  503    0 -0.36677530810E+01  0.23730164366E+02  0.47625128699E+03  0.47685622725E+03  0.00000000000E+00 0. -1.
         -2    1    1    2    0  501 -0.16878901988E+03 -0.52643322809E+02 -0.26736136459E+03  0.32053572647E+03  0.00000000000E+00 0.  1.
<mgrwt>
<rscale>  0 0.68533384E+02</rscale>
<asrwt>0</asrwt>
<pdfrwt beam="1">  1        2 0.10762810E+00 0.24011937E+02</pdfrwt>
<pdfrwt beam="2">  1       -1 0.19085556E+00 0.19560374E+03</pdfrwt>
<totfact> 0.10308536E+01</totfact>
</mgrwt>
</event>
<event>
13    1  0.1595792E-008  0.7932290E+02  0.7546771E-02  0.1412584E+00
          2   -1    0    0  502    0  0.00000000000E+00  0.00000000000E+00  0.24093338672E+04  0.24093338672E+04  0.00000000000E+00 0. -1.
          4   -1    0    0  503    0 -0.00000000000E+00 -0.00000000000E+00 -0.43702810385E+03  0.43702810385E+03  0.00000000000E+00 0. -1.
         24    2    1    2    0    0  0.27036265251E+02  0.46084030407E+02 -0.76432243684E+02  0.12430750057E+03  0.82193487122E+02 0.  0.
         25    2    1    2    0    0 -0.12746497542E+03 -0.21758523357E+02  0.27220813237E+03  0.32625391799E+03  0.12499439338E+03 0.  0.
         24    2    1    2    0    0 -0.17716310914E+02 -0.24018223322E+02  0.21038136480E+03  0.22729720158E+03  0.80702890093E+02 0.  0.
        -11    1    3    3    0    0 -0.58805463630E+01 -0.21695466595E+02 -0.14265435555E+02  0.26622861377E+02  0.00000000000E+00 0.  1.
         12    1    3    3    0    0  0.32916811614E+02  0.67779497002E+02 -0.62166808129E+02  0.97684639190E+02  0.00000000000E+00 0. -1.
        -11    1    5    5    0    0  0.89681028874E+01  0.13668554088E+02  0.54573408288E+01  0.17234813872E+02  0.00000000000E+00 0.  1.
         12    1    5    5    0    0 -0.26684413801E+02 -0.37686777410E+02  0.20492402397E+03  0.21006238771E+03  0.00000000000E+00 0. -1.
          5    1    4    4  501    0 -0.34335172807E+02 -0.65341126487E+02  0.14359322536E+03  0.16152235533E+03  0.47000000000E+01 0.  1.
         -5    1    4    4    0  501 -0.93129802615E+02  0.43582603130E+02  0.12861490701E+03  0.16473156266E+03  0.47000000000E+01 0.  1.
          1    1    1    2  502    0  0.78608204707E+02 -0.86946582189E+01  0.18651281949E+04  0.18668042293E+04  0.00000000000E+00 0. -1.
          3    1    1    2  503    0  0.39536816377E+02  0.83873744910E+01 -0.29897968507E+03  0.30169912162E+03  0.00000000000E+00 0. -1.
<mgrwt>
<rscale>  0 0.56621269E+02</rscale>
<asrwt>0</asrwt>
<pdfrwt beam="1">  1        2 0.35431380E+00 0.79322900E+02</pdfrwt>
<pdfrwt beam="2">  1        4 0.64268840E-01 0.40416678E+02</pdfrwt>
<totfact> 0.64137404E+00</totfact>
</mgrwt>
</event>
<event>
13    1  0.1595792E-008  0.1364844E+03  0.7546771E-02  0.1262467E+00
          2   -1    0    0  503    0  0.00000000000E+00  0.00000000000E+00  0.26806249474E+04  0.26806249474E+04  0.00000000000E+00 0. -1.
          2   -1    0    0  502    0 -0.00000000000E+00 -0.00000000000E+00 -0.11253579050E+04  0.11253579050E+04  0.00000000000E+00 0. -1.
         24    2    1    2    0    0 -0.29389598575E+02  0.59874262854E+02 -0.23617122466E+03  0.25801506947E+03  0.79663372117E+02 0.  0.
         25    2    1    2    0    0  0.14422019498E+03 -0.66575568181E+02  0.12305923533E+03  0.23664549742E+03  0.12500298047E+03 0.  0.
         24    2    1    2    0    0 -0.30140057689E+02 -0.12846110415E+01  0.54094707237E+03  0.55050801708E+03  0.97597481839E+02 0.  0.
        -11    1    3    3    0    0 -0.13620755469E+02 -0.17798205995E+02 -0.32614184294E+02  0.39572542670E+02  0.00000000000E+00 0.  1.
         12    1    3    3    0    0 -0.15768843106E+02  0.77672468850E+02 -0.20355704037E+03  0.21844252679E+03  0.00000000000E+00 0. -1.
        -13    1    5    5    0    0  0.27771100750E+02  0.21323238826E+02  0.12029359613E+03  0.12528552917E+03  0.00000000000E+00 0.  1.
         14    1    5    5    0    0 -0.57911158439E+02 -0.22607849868E+02  0.42065347624E+03  0.42522248790E+03  0.00000000000E+00 0. -1.
          5    1    4    4  501    0  0.14113186080E+03 -0.93742473673E+02  0.12208700228E+03  0.20888556587E+03  0.47000000000E+01 0.  1.
         -5    1    4    4    0  501  0.30883341819E+01  0.27166905492E+02  0.97223304963E+00  0.27759931540E+02  0.47000000000E+01 0.  1.
          1    1    1    2  502    0  0.64021693641E+02 -0.58939593505E+02 -0.81093936685E+03  0.81559506476E+03  0.00000000000E+00 0. -1.
          1    1    1    2  503    0 -0.14871223236E+03  0.66925509873E+02  0.19383713263E+04  0.19452192037E+04  0.00000000000E+00 0. -1.
<mgrwt>
<rscale>  0 0.10898170E+03</rscale>
<asrwt>0</asrwt>
<pdfrwt beam="1">  1        2 0.39420955E+00 0.13648444E+03</pdfrwt>
<pdfrwt beam="2">  1        2 0.16549381E+00 0.87020991E+02</pdfrwt>
<totfact> 0.15946573E+01</totfact>
</mgrwt>
</event>
<event>
13    1  0.1595792E-008  0.9633576E+02  0.7546771E-02  0.1296532E+00
          2   -1    0    0  502    0  0.00000000000E+00  0.00000000000E+00  0.57489848834E+03  0.57489848834E+03  0.00000000000E+00 0. -1.
          2   -1    0    0  503    0 -0.00000000000E+00 -0.00000000000E+00 -0.12200161540E+04  0.12200161540E+04  0.00000000000E+00 0. -1.
         24    2    1    2    0    0 -0.29798844985E+02  0.94161435727E+02 -0.48137836942E+03  0.49809350808E+03  0.81349008052E+02 0.  0.
         25    2    1    2    0    0 -0.23624318206E+02 -0.84837847094E+02 -0.15598047548E+03  0.21842662595E+03  0.12499885393E+03 0.  0.
         24    2    1    2    0    0  0.44959369184E+02  0.22768214316E+02  0.15822258274E+03  0.19036352297E+03  0.93081409151E+02 0.  0.
        -11    1    3    3    0    0 -0.47859119488E+02  0.48754095568E+02 -0.17536522724E+03  0.18820313514E+03  0.00000000000E+00 0.  1.
         12    1    3    3    0    0  0.18060274503E+02  0.45407340159E+02 -0.30601314218E+03  0.30989037294E+03  0.00000000000E+00 0. -1.
        -13    1    5    5    0    0 -0.37838966256E+01 -0.30432350290E+02  0.69784333376E+02  0.76225317334E+02  0.00000000000E+00 0.  1.
         14    1    5    5    0    0  0.48743265809E+02  0.53200564606E+02  0.88438249364E+02  0.11413820564E+03  0.00000000000E+00 0. -1.
          5    1    4    4  501    0 -0.99252606860E+01 -0.47364981494E+02 -0.16926741236E+03  0.17611217777E+03  0.47000000000E+01 0.  1.
         -5    1    4    4    0  501 -0.13699057520E+02 -0.37472865600E+02  0.13286936882E+02  0.42314448181E+02  0.47000000000E+01 0.  1.
          1    1    1    2  502    0 -0.35776689640E+02 -0.10946327490E+03  0.34790665190E+03  0.36647130653E+03  0.00000000000E+00 0. -1.
          1    1    1    2  503    0  0.44240483647E+02  0.77371471956E+02 -0.51388805537E+03  0.52155967877E+03  0.00000000000E+00 0. -1.
<mgrwt>
<rscale>  0 0.92661138E+02</rscale>
<asrwt>0</asrwt>
<pdfrwt beam="1">  1        2 0.84543896E-01 0.96335760E+02</pdfrwt>
<pdfrwt beam="2">  1        2 0.17941414E+00 0.89126680E+02</pdfrwt>
<totfact> 0.19852622E+02</totfact>
</mgrwt>
</event>
<event>
13    1  0.1595792E-008  0.1076743E+03  0.7546771E-02  0.1499901E+00
          2   -1    0    0  503    0  0.00000000000E+00  0.00000000000E+00  0.11032557703E+04  0.11032557703E+04  0.00000000000E+00 0. -1.
          2   -1    0    0  502    0 -0.00000000000E+00 -0.00000000000E+00 -0.14402536114E+04  0.14402536114E+04  0.00000000000E+00 0. -1.
         24    2    1    2    0    0 -0.91720226286E+02 -0.14887902389E+03 -0.39335480435E+03  0.43810561486E+03  0.81430731287E+02 0.  0.
         25    2    1    2    0    0  0.74736917908E+02  0.65976129320E+02  0.51813313832E+02  0.16807125811E+03  0.12499948709E+03 0.  0.
         24    2    1    2    0    0  0.24135359346E+02 -0.14346398271E+02  0.63859806051E+02  0.10625490513E+03  0.80147958938E+02 0.  0.
        -11    1    3    3    0    0 -0.45955549524E+02 -0.10442338899E+03 -0.16218668401E+03  0.19829442042E+03  0.00000000000E+00 0.  1.
         12    1    3    3    0    0 -0.45764676762E+02 -0.44455634899E+02 -0.23116812034E+03  0.23981119444E+03  0.00000000000E+00 0. -1.
        -13    1    5    5    0    0  0.28601076724E+02  0.23249759632E+02  0.63504675186E+01  0.37401889664E+02  0.00000000000E+00 0.  1.
         14    1    5    5    0    0 -0.44657173777E+01 -0.37596157904E+02  0.57509338532E+02  0.68853015469E+02  0.00000000000E+00 0. -1.
          5    1    4    4  501    0  0.33101946545E+02 -0.22682861589E+02  0.57007482584E+02  0.69872699572E+02  0.47000000000E+01 0.  1.
         -5    1    4    4    0  501  0.41634971364E+02  0.88658990909E+02 -0.51941687517E+01  0.98198558536E+02  0.47000000000E+01 0.  1.
          1    1    1    2  502    0  0.41764142024E+01  0.10815946286E+03 -0.94202779552E+03  0.94822585884E+03  0.00000000000E+00 0. -1.
          1    1    1    2  503    0 -0.11328465171E+02 -0.10910170012E+02  0.88271163881E+03  0.88285174476E+03  0.00000000000E+00 0. -1.
<mgrwt>
<rscale>  0 0.41151999E+02</rscale>
<asrwt>0</asrwt>
<pdfrwt beam="1">  1        2 0.16224350E+00 0.15727871E+02</pdfrwt>
<pdfrwt beam="2">  1        2 0.21180200E+00 0.10767427E+03</pdfrwt>
<totfact> 0.75979075E+01</totfact>
</mgrwt>
</event>
<event>
13    1  0.1595792E-008  0.2930979E+02  0.7546771E-02  0.1724447E+00
          2   -1    0    0  503    0  0.00000000000E+00  0.00000000000E+00  0.10753866605E+04  0.10753866605E+04  0.00000000000E+00 0. -1.
         -1   -1    0    0    0  501 -0.00000000000E+00 -0.00000000000E+00 -0.30269635930E+03  0.30269635930E+03  0.00000000000E+00 0.  1.
         24    2    1    2    0    0  0.30245788151E+02 -0.12331488577E+02 -0.47411265339E+01  0.87300748854E+02  0.80821217253E+02 0.  0.
         25    2    1    2    0    0 -0.22766748983E+02  0.99428994209E+02 -0.12287151865E+03  0.20279636689E+03  0.12499802630E+03 0.  0.
         24    2    1    2    0    0  0.20973749657E+01 -0.45781299794E+02  0.16862326690E+03  0.19158476153E+03  0.78553092340E+02 0.  0.
        -11    1    3    3    0    0  0.43513247921E+02  0.23001391423E+02 -0.56951812663E+01  0.49546966019E+02  0.00000000000E+00 0.  1.
         12    1    3    3    0    0 -0.13267459770E+02 -0.35332880001E+02  0.95405473242E+00  0.37753782835E+02  0.00000000000E+00 0. -1.
        -11    1    5    5    0    0  0.20179546225E+02  0.78342340443E+01  0.11348563814E+02  0.24441342220E+02  0.00000000000E+00 0.  1.
         12    1    5    5    0    0 -0.18082171259E+02 -0.53615533838E+02  0.15727470309E+03  0.16714341931E+03  0.00000000000E+00 0. -1.
          5    1    4    4  502    0  0.64135124058E+00  0.12566088645E+03 -0.92627767711E+02  0.15618278735E+03  0.47000000000E+01 0. -1.
         -5    1    4    4    0  502 -0.23408100224E+02 -0.26231892236E+02 -0.30243750938E+02  0.46613579536E+02  0.47000000000E+01 0. -1.
          1    1    1    2  503    0 -0.31166765043E+00 -0.29293638056E+02  0.81307507586E+03  0.81360266307E+03  0.00000000000E+00 0. -1.
         -2    1    1    2    0  501 -0.92647464832E+01 -0.12022567781E+02 -0.81395396335E+02  0.82798479503E+02  0.00000000000E+00 0.  1.
<mgrwt>
<rscale>  0 0.21091937E+02</rscale>
<asrwt>0</asrwt>
<pdfrwt beam="1">  1        2 0.15814510E+00 0.29309792E+02</pdfrwt>
<pdfrwt beam="2">  1       -1 0.44514171E-01 0.15178197E+02</pdfrwt>
<totfact> 0.16424540E+02</totfact>
</mgrwt>
</event>
<event>
13    1  0.1595792E-008  0.1426639E+03  0.7546771E-02  0.1374282E+00
          2   -1    0    0  503    0  0.00000000000E+00  0.00000000000E+00  0.64234383657E+03  0.64234383657E+03  0.00000000000E+00 0. -1.
          2   -1    0    0  502    0 -0.00000000000E+00 -0.00000000000E+00 -0.18492588298E+04  0.18492588298E+04  0.00000000000E+00 0. -1.
         24    2    1    2    0    0  0.11244693463E+03 -0.38956378318E+02 -0.21747783396E+03  0.26050162096E+03  0.80016084252E+02 0.  0.
         25    2    1    2    0    0 -0.21853798036E+03  0.24646890372E+03 -0.84282274458E+03  0.91349912923E+03  0.12499884387E+03 0.  0.
         24    2    1    2    0    0  0.34637672584E+02  0.49123056300E+02  0.49857429343E+02  0.10326799069E+03  0.67569753725E+02 0.  0.
        -13    1    3    3    0    0  0.55374714422E+02  0.11883679532E+02 -0.14289584815E+03  0.15371013062E+03  0.00000000000E+00 0.  1.
         14    1    3    3    0    0  0.57072220211E+02 -0.50840057850E+02 -0.74581985811E+02  0.10679149034E+03  0.00000000000E+00 0. -1.
        -13    1    5    5    0    0 -0.12507836452E+02  0.20998355631E+02  0.40897670265E+02  0.47644478641E+02  0.00000000000E+00 0.  1.
         14    1    5    5    0    0  0.47145509037E+02  0.28124700669E+02  0.89597590780E+01  0.55623512050E+02  0.00000000000E+00 0. -1.
          5    1    4    4  501    0 -0.20216241081E+03  0.24919097194E+03 -0.83501823554E+03  0.89456320320E+03  0.47000000000E+01 0.  1.
         -5    1    4    4    0  501 -0.16375569548E+02 -0.27220682175E+01 -0.78045090446E+01  0.18935926035E+02  0.47000000000E+01 0.  1.
          1    1    1    2  502    0 -0.15530256732E+02 -0.26279103841E+02 -0.67525475520E+03  0.67594435022E+03  0.00000000000E+00 0. -1.
          1    1    1    2  503    0  0.86983629870E+02 -0.23035647786E+03  0.47878291116E+03  0.53838957528E+03  0.00000000000E+00 0. -1.
<mgrwt>
<rscale>  0 0.65991112E+02</rscale>
<asrwt>0</asrwt>
<pdfrwt beam="1">  1        2 0.94462327E-01 0.14266392E+03</pdfrwt>
<pdfrwt beam="2">  1        2 0.27194983E+00 0.30525074E+02</pdfrwt>
<totfact> 0.94972374E+01</totfact>
</mgrwt>
</event>
<event>
13    1  0.1595792E-008  0.1211882E+03  0.7546771E-02  0.1273304E+00
          2   -1    0    0  502    0  0.00000000000E+00  0.00000000000E+00  0.16014247329E+04  0.16014247329E+04  0.00000000000E+00 0. -1.
          2   -1    0    0  503    0 -0.00000000000E+00 -0.00000000000E+00 -0.23700901618E+04  0.23700901618E+04  0.00000000000E+00 0. -1.
         24    2    1    2    0    0  0.25641198830E+02 -0.67648603470E+02 -0.17170237340E+03  0.20270255310E+03  0.79829915279E+02 0.  0.
         25    2    1    2    0    0  0.11885657847E+02 -0.39917557997E+02 -0.21540186866E+02  0.13350134067E+03  0.12499579198E+03 0.  0.
         24    2    1    2    0    0  0.58852229308E+02  0.48083310018E+02 -0.24581186987E+02  0.11478031669E+03  0.82429950551E+02 0.  0.
        -11    1    5    5    0    0  0.38018692730E+02  0.71316666834E+02 -0.19825966318E+02  0.83213922547E+02  0.00000000000E+00 0.  1.
         12    1    5    5    0    0  0.20833536578E+02 -0.23233356816E+02 -0.47552206685E+01  0.31566394138E+02  0.00000000000E+00 0. -1.
        -13    1    3    3    0    0  0.47978536816E+02 -0.16345176100E+02 -0.96073966107E+02  0.10862463689E+03  0.00000000000E+00 0.  1.
         14    1    3    3    0    0 -0.22337337986E+02 -0.51303427369E+02 -0.75628407290E+02  0.94077916204E+02  0.00000000000E+00 0. -1.
          5    1    4    4  501    0  0.12527161205E+02 -0.13261156314E+02  0.51908569579E+02  0.55221170128E+02  0.47000000000E+01 0.  1.
         -5    1    4    4    0  501 -0.64150335785E+00 -0.26656401683E+02 -0.73448756445E+02  0.78280170545E+02  0.47000000000E+01 0.  1.
          1    1    1    2  502    0 -0.99885774668E+02 -0.70379148412E+02  0.14802520465E+04  0.14852866772E+04  0.00000000000E+00 0. -1.
          1    1    1    2  503    0  0.35066886829E+01  0.12986199986E+03 -0.20310937281E+04  0.20352440070E+04  0.00000000000E+00 0. -1.
<mgrwt>
<rscale>  0 0.10340042E+03</rscale>
<asrwt>0</asrwt>
<pdfrwt beam="1">  1        2 0.23550364E+00 0.12118822E+03</pdfrwt>
<pdfrwt beam="2">  1        2 0.34854266E+00 0.88223484E+02</pdfrwt>
<totfact> 0.13470477E+01</totfact>
</mgrwt>
</event>
<event>
13    1  0.1595792E-008  0.3758457E+02  0.7546771E-02  0.1601291E+00
          2   -1    0    0  503    0  0.00000000000E+00  0.00000000000E+00  0.11668041395E+04  0.11668041395E+04  0.00000000000E+00 0. -1.
         -1   -1    0    0    0  501 -0.00000000000E+00 -0.00000000000E+00 -0.77416685410E+03  0.77416685410E+03  0.00000000000E+00 0.  1.
         24    2    1    2    0    0  0.32807827285E+02 -0.15504549135E+02  0.24898030181E+02  0.91088578743E+02  0.79752571717E+02 0.  0.
         25    2    1    2    0    0 -0.68064695717E+02 -0.14981290650E+02  0.59079668430E+02  0.15483172679E+03  0.12500085810E+03 0.  0.
         24    2    1    2    0    0  0.50403269748E+02  0.29855209037E+02  0.51074283391E+03  0.52024064069E+03  0.79751230266E+02 0.  0.
        -11    1    3    3    0    0  0.45664210487E+01  0.19200449415E+01 -0.28113870123E+02  0.28546951975E+02  0.00000000000E+00 0.  1.
         12    1    3    3    0    0  0.28241406237E+02 -0.17424594077E+02  0.53011900304E+02  0.62541626768E+02  0.00000000000E+00 0. -1.
        -13    1    5    5    0    0  0.11454187054E+02  0.24390905282E+02  0.42327457681E+02  0.50176970168E+02  0.00000000000E+00 0.  1.
         14    1    5    5    0    0  0.38949082695E+02  0.54643037557E+01  0.46841537623E+03  0.47006367052E+03  0.00000000000E+00 0. -1.
          5    1    4    4  502    0 -0.51479374144E+02 -0.32164808496E+02  0.94163264663E+02  0.11213166939E+03  0.47000000000E+01 0.  1.
         -5    1    4    4    0  502 -0.16585321573E+02  0.17183517846E+02 -0.35083596232E+02  0.42700057399E+02  0.47000000000E+01 0.  1.
          1    1    1    2  503    0  0.21288492605E+02  0.99261889417E+01  0.48556584753E+03  0.48613364565E+03  0.00000000000E+00 0. -1.
         -2    1    1    2    0  501 -0.36434893922E+02 -0.92955581939E+01 -0.68764909466E+03  0.68867640172E+03  0.00000000000E+00 0.  1.
<mgrwt>
<rscale>  0 0.29712300E+02</rscale>
<asrwt>0</asrwt>
<pdfrwt beam="1">  1        2 0.17158884E+00 0.23488915E+02</pdfrwt>
<pdfrwt beam="2">  1       -1 0.11384807E+00 0.37584569E+02</pdfrwt>
<totfact> 0.24727306E+01</totfact>
</mgrwt>
</event>
<event>
13    1  0.1595792E-008  0.1744077E+03  0.7546771E-02  0.1204196E+00
          2   -1    0    0  503    0  0.00000000000E+00  0.00000000000E+00  0.20921803455E+04  0.20921803455E+04  0.00000000000E+00 0. -1.
         -1   -1    0    0    0  501 -0.00000000000E+00 -0.00000000000E+00 -0.39329175875E+03  0.39329175875E+03  0.00000000000E+00 0.  1.
         24    2    1    2    0    0  0.43216215029E+02  0.88974558431E+02 -0.47036151291E+02  0.13537585602E+03  0.79561985738E+02 0.  0.
         25    2    1    2    0    0 -0.26657366101E+03 -0.98343302280E+02  0.26810166341E+03  0.41016696252E+03  0.12500205345E+03 0.  0.
         24    2    1    2    0    0  0.57347448266E+02 -0.77043895240E+02  0.89266794306E+02  0.15419091157E+03  0.81128201183E+02 0.  0.
        -11    1    3    3    0    0  0.40062958346E+02  0.94498423745E+02 -0.61444414338E+02  0.11962612079E+03  0.00000000000E+00 0.  1.
         12    1    3    3    0    0  0.31532566822E+01 -0.55238653141E+01  0.14408263047E+02  0.15749735227E+02  0.00000000000E+00 0. -1.
        -13    1    5    5    0    0  0.27318178514E+02 -0.81517994469E+02  0.36684823626E+02  0.93473218539E+02  0.00000000000E+00 0.  1.
         14    1    5    5    0    0  0.30029269752E+02  0.44740992296E+01  0.52581970680E+02  0.60717693026E+02  0.00000000000E+00 0. -1.
          5    1    4    4  502    0 -0.25684460867E+03 -0.75825984372E+02  0.19059558223E+03  0.32873621473E+03  0.47000000000E+01 0. -1.
         -5    1    4    4    0  502 -0.97290523455E+01 -0.22517317908E+02  0.77506081183E+02  0.81430747790E+02  0.47000000000E+01 0. -1.
          1    1    1    2  503    0  0.65980066500E+02  0.15954995070E+03  0.15625883808E+04  0.15720979626E+04  0.00000000000E+00 0. -1.
         -2    1    1    2    0  501  0.10002993122E+03 -0.73137311607E+02 -0.17403210047E+03  0.21364041163E+03  0.00000000000E+00 0.  1.
<mgrwt>
<rscale>  0 0.14700959E+03</rscale>
<asrwt>0</asrwt>
<pdfrwt beam="1">  1        2 0.30767358E+00 0.17440770E+03</pdfrwt>
<pdfrwt beam="2">  1       -1 0.57837024E-01 0.12391551E+03</pdfrwt>
<totfact> 0.28363152E+01</totfact>
</mgrwt>
</event>
<event>
13    1  0.1595792E-008  0.3191631E+02  0.7546771E-02  0.1587003E+00
          2   -1    0    0  502    0  0.00000000000E+00  0.00000000000E+00  0.18547340675E+04  0.18547340675E+04  0.00000000000E+00 0. -1.
          4   -1    0    0  503    0 -0.00000000000E+00 -0.00000000000E+00 -0.30784867650E+02  0.30784867650E+02  0.00000000000E+00 0. -1.
         24    2    1    2    0    0  0.91364961106E+01 -0.21250220134E+02  0.23895134375E+03  0.25319301145E+03  0.80460604971E+02 0.  0.
         25    2    1    2    0    0  0.78082589535E+01  0.30842243691E+02  0.39112209198E+03  0.41184138387E+03  0.12499848691E+03 0.  0.
         24    2    1    2    0    0  0.93469809164E+01  0.24133074323E+02  0.38428636370E+03  0.39328680665E+03  0.79553325699E+02 0.  0.
        -11    1    5    5    0    0  0.37704922198E+02  0.31373850930E+01  0.29275918944E+03  0.29519391482E+03  0.00000000000E+00 0.  1.
         12    1    5    5    0    0 -0.28357941282E+02  0.20995689230E+02  0.91527174260E+02  0.98092891832E+02  0.00000000000E+00 0. -1.
        -13    1    3    3    0    0 -0.24177022378E+02 -0.49839051715E+01  0.19096626945E+03  0.19255514480E+03  0.00000000000E+00 0.  1.
         14    1    3    3    0    0  0.33313518488E+02 -0.16266314963E+02  0.47985074295E+02  0.60637866648E+02  0.00000000000E+00 0. -1.
          5    1    4    4  501    0 -0.46497406074E+02  0.11422859597E+02  0.66361475105E+02  0.81966004362E+02  0.47000000000E+01 0. -1.
         -5    1    4    4    0  501  0.54305665027E+02  0.19419384094E+02  0.32476061688E+03  0.32987537951E+03  0.47000000000E+01 0. -1.
          1    1    1    2  502    0 -0.30096451803E+02 -0.20025143449E+01  0.78813687801E+03  0.78871385493E+03  0.00000000000E+00 0. -1.
          3    1    1    2  503    0  0.38047158229E+01 -0.31722583535E+02  0.21452522446E+02  0.38483878286E+02  0.00000000000E+00 0. -1.
<mgrwt>
<rscale>  0 0.31027274E+02</rscale>
<asrwt>0</asrwt>
<pdfrwt beam="1">  1        2 0.27275493E+00 0.30162998E+02</pdfrwt>
<pdfrwt beam="2">  1        4 0.45271877E-02 0.31916313E+02</pdfrwt>
<totfact> 0.12710561E+03</totfact>
</mgrwt>
</event>
<event>
13    1  0.1595792E-008  0.7805512E+02  0.7546771E-02  0.1471534E+00
          2   -1    0    0  503    0  0.00000000000E+00  0.00000000000E+00  0.11293470707E+04  0.11293470707E+04  0.00000000000E+00 0. -1.
          2   -1    0    0  502    0 -0.00000000000E+00 -0.00000000000E+00 -0.18423171262E+04  0.18423171262E+04  0.00000000000E+00 0. -1.
         24    2    1    2    0    0 -0.91348073683E+02 -0.64761770155E+02 -0.19437098697E+03  0.23781508912E+03  0.78977076404E+02 0.  0.
         25    2    1    2    0    0 -0.67103081173E+01  0.24245293588E+02  0.85850786099E+02  0.15371680543E+03  0.12500254518E+03 0.  0.
         24    2    1    2    0    0  0.59392557372E+02  0.87198538640E+02  0.17252317521E+03  0.21792563620E+03  0.81217460657E+02 0.  0.
        -11    1    5    5    0    0  0.18978574752E+02  0.84920988718E+02  0.14455746109E+03  0.16872646557E+03  0.00000000000E+00 0.  1.
         12    1    5    5    0    0  0.40413982619E+02  0.22775499213E+01  0.27965714115E+02  0.49199170631E+02  0.00000000000E+00 0. -1.
        -11    1    3    3    0    0 -0.87579258788E+02 -0.81366732414E+02 -0.17607446781E+03  0.21282126286E+03  0.00000000000E+00 0.  1.
         12    1    3    3    0    0 -0.37688148949E+01  0.16604962259E+02 -0.18296519165E+02  0.24993826255E+02  0.00000000000E+00 0. -1.
          5    1    4    4  501    0  0.28159619540E+02  0.48142884411E+02 -0.21111338105E+01  0.56011145123E+02  0.47000000000E+01 0.  1.
         -5    1    4    4    0  501 -0.34869927657E+02 -0.23897590823E+02  0.87961919909E+02  0.97705660307E+02  0.47000000000E+01 0.  1.
          1    1    1    2  502    0  0.64932233208E+02 -0.43421242650E+02 -0.15683966302E+04  0.15703405965E+04  0.00000000000E+00 0. -1.
          1    1    1    2  503    0 -0.26266408779E+02 -0.32608194226E+01  0.79142360032E+03  0.79186606969E+03  0.00000000000E+00 0. -1.
<mgrwt>
<rscale>  0 0.45452901E+02</rscale>
<asrwt>0</asrwt>
<pdfrwt beam="1">  1        2 0.16608045E+00 0.26468041E+02</pdfrwt>
<pdfrwt beam="2">  1        2 0.27092899E+00 0.78055123E+02</pdfrwt>
<totfact> 0.46793883E+01</totfact>
</mgrwt>
</event>
<event>
13    1  0.1595792E-008  0.1794023E+03  0.7546771E-02  0.1465319E+00
          2   -1    0    0  502    0  0.00000000000E+00  0.00000000000E+00  0.23447448026E+04  0.23447448026E+04  0.00000000000E+00 0. -1.
          2   -1    0    0  503    0 -0.00000000000E+00 -0.00000000000E+00 -0.17516939013E+04  0.17516939013E+04  0.00000000000E+00 0. -1.
         24    2    1    2    0    0 -0.57218492752E+02 -0.13275572358E+01 -0.53385869501E+03  0.54264262697E+03  0.78614222934E+02 0.  0.
         25    2    1    2    0    0 -0.12321870589E+03  0.39977091091E+01 -0.50268470056E+03  0.53246257423E+03  0.12500261446E+03 0.  0.
         24    2    1    2    0    0  0.15546047315E+02 -0.68704786575E+02 -0.16369904917E+03  0.19570714949E+03  0.80881903886E+02 0.  0.
        -13    1    5    5    0    0  0.25808990197E+02 -0.80903644346E+02 -0.15683592261E+03  0.17835080674E+03  0.00000000000E+00 0.  1.
         14    1    5    5    0    0 -0.10262942881E+02  0.12198857771E+02 -0.68631265622E+01  0.17356342751E+02  0.00000000000E+00 0. -1.
        -13    1    3    3    0    0 -0.55246404628E+02 -0.25285702399E+02 -0.23185490847E+03  0.23968360510E+03  0.00000000000E+00 0.  1.
         14    1    3    3    0    0 -0.19720881235E+01  0.23958145163E+02 -0.30200378654E+03  0.30295902187E+03  0.00000000000E+00 0. -1.
          5    1    4    4  501    0  0.11286878840E+02  0.33899796282E+02 -0.77167024275E+02  0.85167067916E+02  0.47000000000E+01 0. -1.
         -5    1    4    4    0  501 -0.13450558473E+03 -0.29902087173E+02 -0.42551767628E+03  0.44729550632E+03  0.47000000000E+01 0. -1.
          1    1    1    2  502    0  0.16219468701E+03  0.77770037994E+02  0.23058865636E+04  0.23128917267E+04  0.00000000000E+00 0. -1.
          1    1    1    2  503    0  0.26964643222E+01 -0.11735403292E+02 -0.51259321752E+03  0.51273462654E+03  0.00000000000E+00 0. -1.
<mgrwt>
<rscale>  0 0.46478167E+02</rscale>
<asrwt>0</asrwt>
<pdfrwt beam="1">  1        2 0.34481541E+00 0.17940231E+03</pdfrwt>
<pdfrwt beam="2">  1        2 0.25760204E+00 0.12041205E+02</pdfrwt>
<totfact> 0.13613780E+01</totfact>
</mgrwt>
</event>
<event>
13    1  0.1595792E-008  0.8300521E+02  0.7546771E-02  0.1332427E+00
          2   -1    0    0  503    0  0.00000000000E+00  0.00000000000E+00  0.33826406326E+04  0.33826406326E+04  0.00000000000E+00 0. -1.
          2   -1    0    0  502    0 -0.00000000000E+00 -0.00000000000E+00 -0.61981583159E+03  0.61981583159E+03  0.00000000000E+00 0. -1.
         24    2    1    2    0    0 -0.33048131481E+02 -0.16989012522E+03 -0.20748255954E+03  0.28118078495E+03  0.77838214717E+02 0.  0.
         25    2    1    2    0    0 -0.51988822318E+01  0.14580871086E+03 -0.40481515496E+02  0.19634033060E+03  0.12499425500E+03 0.  0.
         24    2    1    2    0    0  0.50373427912E+02 -0.34966090380E+02  0.27141938756E+03  0.28995252182E+03  0.81509945709E+02 0.  0.
        -11    1    5    5    0    0 -0.11506957124E+02 -0.32277552641E+02  0.54625087536E+02  0.64483723954E+02  0.00000000000E+00 0.  1.
         12    1    5    5    0    0  0.61880385036E+02 -0.26885377396E+01  0.21679430003E+03  0.22546879787E+03  0.00000000000E+00 0. -1.
        -13    1    3    3    0    0  0.21858940707E+02 -0.78923743768E+02 -0.10874586892E+03  0.13613388493E+03  0.00000000000E+00 0.  1.
         14    1    3    3    0    0 -0.54907072188E+02 -0.90966381450E+02 -0.98736690620E+02  0.14504690002E+03  0.00000000000E+00 0. -1.
          5    1    4    4  501    0  0.47492164537E+02  0.96918214612E+02  0.98292610547E+01  0.10847741880E+03  0.47000000000E+01 0. -1.
         -5    1    4    4    0  501 -0.52691046769E+02  0.48890496249E+02 -0.50310776550E+02  0.87862911801E+02  0.47000000000E+01 0. -1.
          1    1    1    2  502    0  0.62656308844E+02  0.55873429184E+02 -0.24021312392E+03  0.25446020913E+03  0.00000000000E+00 0. -1.
          1    1    1    2  503    0 -0.74782723044E+02  0.31740755531E+01  0.29795826124E+04  0.29805226176E+04  0.00000000000E+00 0. -1.
<mgrwt>
<rscale>  0 0.78822234E+02</rscale>
<asrwt>0</asrwt>
<pdfrwt beam="1">  1        2 0.49744714E+00 0.74850053E+02</pdfrwt>
<pdfrwt beam="2">  1        2 0.91149388E-01 0.83005213E+02</pdfrwt>
<totfact> 0.15316410E+01</totfact>
</mgrwt>
</event>
<event>
13    1  0.1595792E-008  0.1265166E+03  0.7546771E-02  0.1410274E+00
          2   -1    0    0  503    0  0.00000000000E+00  0.00000000000E+00  0.12603971098E+04  0.12603971098E+04  0.00000000000E+00 0. -1.
          2   -1    0    0  502    0 -0.00000000000E+00 -0.00000000000E+00 -0.37640704024E+04  0.37640704024E+04  0.00000000000E+00 0. -1.
         24    2    1    2    0    0  0.35806612579E+03 -0.60214656575E+02 -0.21020334978E+04  0.21358021039E+04  0.10615387954E+03 0.  0.
         25    2    1    2    0    0 -0.47203510478E+03  0.27329758054E+03 -0.78009401535E+03  0.96004172601E+03  0.12499894082E+03 0.  0.
         24    2    1    2    0    0 -0.33097786070E+01 -0.26782616375E+03  0.75326275418E+03  0.80376494304E+03  0.83015048008E+02 0.  0.
        -13    1    3    3    0    0  0.54620584774E+02 -0.34420154377E+02 -0.58135787805E+03  0.58493173762E+03  0.00000000000E+00 0.  1.
         14    1    3    3    0    0  0.30344554102E+03 -0.25794502197E+02 -0.15206756197E+04  0.15508703663E+04  0.00000000000E+00 0. -1.
        -13    1    5    5    0    0  0.38166001856E+02 -0.89653033324E+02  0.25529555138E+03  0.27325835511E+03  0.00000000000E+00 0.  1.
         14    1    5    5    0    0 -0.41475780463E+02 -0.17817313043E+03  0.49796720281E+03  0.53050658794E+03  0.00000000000E+00 0. -1.
          5    1    4    4  501    0 -0.16818030244E+03  0.16109079285E+03 -0.37344815823E+03  0.44013688161E+03  0.47000000000E+01 0. -1.
         -5    1    4    4    0  501 -0.30385480234E+03  0.11220678769E+03 -0.40664585713E+03  0.51990484440E+03  0.47000000000E+01 0. -1.
          1    1    1    2  502    0 -0.57284362830E+01  0.25156183660E+02 -0.73893202793E+03  0.73938230332E+03  0.00000000000E+00 0. -1.
          1    1    1    2  503    0  0.12300719388E+03  0.29587056133E+02  0.36412349423E+03  0.38547643597E+03  0.00000000000E+00 0. -1.
<mgrwt>
<rscale>  0 0.57132735E+02</rscale>
<asrwt>0</asrwt>
<pdfrwt beam="1">  1        2 0.18535251E+00 0.12651661E+03</pdfrwt>
<pdfrwt beam="2">  1        2 0.55353978E+00 0.25800166E+02</pdfrwt>
<totfact> 0.45639966E+00</totfact>
</mgrwt>
</event>
<event>
13    1  0.1595792E-008  0.1325767E+03  0.7546771E-02  0.1401568E+00
          2   -1    0    0  502    0  0.00000000000E+00  0.00000000000E+00  0.45421312251E+04  0.45421312251E+04  0.00000000000E+00 0. -1.
          2   -1    0    0  503    0 -0.00000000000E+00 -0.00000000000E+00 -0.13676383398E+04  0.13676383398E+04  0.00000000000E+00 0. -1.
         24    2    1    2    0    0 -0.68316036481E+02 -0.84456163643E+02 -0.22422433099E+03  0.26099250101E+03  0.77721364870E+02 0.  0.
         25    2    1    2    0    0 -0.23571124834E+03  0.19341056260E+03  0.99191205108E+03  0.10452129393E+04  0.12495252307E+03 0.  0.
         24    2    1    2    0    0  0.14547362291E+03 -0.11464101300E+03  0.28365083045E+04  0.28436652283E+04  0.79670773672E+02 0.  0.
        -11    1    3    3    0    0 -0.20626291623E+01  0.13233822796E+02 -0.11233642394E+02  0.17480938942E+02  0.00000000000E+00 0.  1.
         12    1    3    3    0    0 -0.66253407319E+02 -0.97689986439E+02 -0.21299068859E+03  0.24351156207E+03  0.00000000000E+00 0. -1.
        -11    1    5    5    0    0  0.84738509614E+01 -0.43913240079E+02  0.85425927592E+03  0.85542918427E+03  0.00000000000E+00 0.  1.
         12    1    5    5    0    0  0.13699977195E+03 -0.70727772923E+02  0.19822490286E+04  0.19882360440E+04  0.00000000000E+00 0. -1.
          5    1    4    4  501    0 -0.16080709350E+02  0.81049823117E+02  0.25148153855E+03  0.26475029229E+03  0.47000000000E+01 0.  1.
         -5    1    4    4    0  501 -0.21963053899E+03  0.11236073949E+03  0.74043051254E+03  0.78046264698E+03  0.47000000000E+01 0.  1.
          1    1    1    2  502    0  0.26011339232E+02  0.42863796586E+01  0.66082208972E+03  0.66134771269E+03  0.00000000000E+00 0. -1.
          1    1    1    2  503    0  0.13254232268E+03  0.14002343825E+01 -0.10905252290E+04  0.10985511836E+04  0.00000000000E+00 0. -1.
<mgrwt>
<rscale>  0 0.59118571E+02</rscale>
<asrwt>0</asrwt>
<pdfrwt beam="1">  1        2 0.66796047E+00 0.26362147E+02</pdfrwt>
<pdfrwt beam="2">  1        2 0.20112329E+00 0.13257666E+03</pdfrwt>
<totfact> 0.11999581E+00</totfact>
</mgrwt>
</event>
<event>
13    1  0.1595792E-008  0.1492344E+02  0.7546771E-02  0.1874979E+00
          2   -1    0    0  503    0  0.00000000000E+00  0.00000000000E+00  0.12898302596E+04  0.12898302596E+04  0.00000000000E+00 0. -1.
         -1   -1    0    0    0  501 -0.00000000000E+00 -0.00000000000E+00 -0.30550188290E+03  0.30550188290E+03  0.00000000000E+00 0.  1.
         24    2    1    2    0    0  0.38117779650E+02  0.10378156983E+03  0.92315947445E+01  0.13728168962E+03  0.80854564508E+02 0.  0.
         25    2    1    2    0    0 -0.86259353935E+02 -0.10000314307E+03 -0.39215829139E+02  0.18602531119E+03  0.12500492144E+03 0.  0.
         24    2    1    2    0    0  0.42453662800E+02 -0.39013187319E-01  0.25728132795E+03  0.27260104088E+03  0.79469055406E+02 0.  0.
        -11    1    5    5    0    0 -0.99821848540E+00 -0.10964482498E+02 -0.43561719546E+00  0.11018442673E+02  0.00000000000E+00 0.  1.
         12    1    5    5    0    0  0.43451881285E+02  0.10925469311E+02  0.25771694515E+03  0.26158259820E+03  0.00000000000E+00 0. -1.
        -13    1    3    3    0    0 -0.19810337744E+02  0.58063704764E+02 -0.69200544821E+01  0.61739213200E+02  0.00000000000E+00 0.  1.
         14    1    3    3    0    0  0.57928117394E+02  0.45717865061E+02  0.16151649227E+02  0.75542476418E+02  0.00000000000E+00 0. -1.
          5    1    4    4  502    0 -0.43554943080E+02 -0.10551036657E+03  0.16526781273E+02  0.11543264279E+03  0.47000000000E+01 0. -1.
         -5    1    4    4    0  502 -0.42704410855E+02  0.55072235015E+01 -0.55742610412E+02  0.70592668406E+02  0.47000000000E+01 0. -1.
          1    1    1    2  503    0  0.10180617361E+02  0.10507036599E+02  0.87770620028E+03  0.87782812486E+03  0.00000000000E+00 0. -1.
         -2    1    1    2    0  501 -0.44927058766E+01 -0.14246450164E+02 -0.12067491712E+03  0.12159597597E+03  0.00000000000E+00 0.  1.
<mgrwt>
<rscale>  0 0.14776095E+02</rscale>
<asrwt>0</asrwt>
<pdfrwt beam="1">  1        2 0.18968092E+00 0.14630201E+02</pdfrwt>
<pdfrwt beam="2">  1       -1 0.44926748E-01 0.14923444E+02</pdfrwt>
<totfact> 0.13316230E+02</totfact>
</mgrwt>
</event>
<event>
13    1  0.1595792E-008  0.7161484E+02  0.7546771E-02  0.1579979E+00
          2   -1    0    0  502    0  0.00000000000E+00  0.00000000000E+00  0.46650943061E+04  0.46650943061E+04  0.00000000000E+00 0. -1.
          2   -1    0    0  503    0 -0.00000000000E+00 -0.00000000000E+00 -0.23170086153E+04  0.23170086153E+04  0.00000000000E+00 0. -1.
         24    2    1    2    0    0  0.73024740699E+02  0.10486597679E+03 -0.47165121807E+03  0.49521626792E+03  0.80341736719E+02 0.  0.
         25    2    1    2    0    0  0.46143306374E+03  0.13860809456E+03 -0.96451563682E+03  0.10853804194E+04  0.12501025908E+03 0.  0.
         24    2    1    2    0    0 -0.45599369679E+03 -0.24543805550E+03  0.15622419860E+04  0.16477851075E+04  0.80160133850E+02 0.  0.
        -11    1    5    5    0    0 -0.19396940932E+03 -0.76662587155E+02  0.72529804318E+03  0.75469101986E+03  0.00000000000E+00 0.  1.
         12    1    5    5    0    0 -0.26202428747E+03 -0.16877546834E+03  0.83694394285E+03  0.89309408766E+03  0.00000000000E+00 0. -1.
        -13    1    3    3    0    0  0.27064028436E+00  0.64073837198E+02 -0.25859233515E+03  0.26641232265E+03  0.00000000000E+00 0.  1.
         14    1    3    3    0    0  0.72754100415E+02  0.40792139590E+02 -0.21305888292E+03  0.22880394527E+03  0.00000000000E+00 0. -1.
          5    1    4    4  501    0  0.39611612230E+03  0.10337019301E+03 -0.70329529639E+03  0.81378113954E+03  0.47000000000E+01 0. -1.
         -5    1    4    4    0  501  0.65316941436E+02  0.35237901552E+02 -0.26122034043E+03  0.27159927982E+03  0.47000000000E+01 0. -1.
          1    1    1    2  502    0 -0.70345783687E+02  0.13413628740E+02  0.29873723833E+04  0.29882306155E+04  0.00000000000E+00 0. -1.
          1    1    1    2  503    0 -0.81183239634E+01 -0.11449644590E+02 -0.76536182367E+03  0.76549051116E+03  0.00000000000E+00 0. -1.
<mgrwt>
<rscale>  0 0.31704355E+02</rscale>
<asrwt>0</asrwt>
<pdfrwt beam="1">  1        2 0.68604328E+00 0.71614843E+02</pdfrwt>
<pdfrwt beam="2">  1        2 0.34073656E+00 0.14035724E+02</pdfrwt>
<totfact> 0.33460238E-01</totfact>
</mgrwt>
</event>
<event>
13    1  0.1595792E-008  0.1215136E+03  0.7546771E-02  0.1294577E+00
          2   -1    0    0  503    0  0.00000000000E+00  0.00000000000E+00  0.91324896560E+03  0.91324896560E+03  0.00000000000E+00 0. -1.
          2   -1    0    0  502    0 -0.00000000000E+00 -0.00000000000E+00 -0.77270098041E+03  0.77270098041E+03  0.00000000000E+00 0. -1.
         24    2    1    2    0    0  0.17339193676E+03 -0.17538931118E+03 -0.25597399769E+02  0.26010235266E+03  0.78561013054E+02 0.  0.
         25    2    1    2    0    0 -0.16199759164E+03  0.42887711181E+03  0.10800275113E+03  0.48730737247E+03  0.12500033714E+03 0.  0.
         24    2    1    2    0    0  0.34493349823E+02 -0.75782972530E+02  0.24869910210E+03  0.27518137648E+03  0.83310842462E+02 0.  0.
        -11    1    3    3    0    0  0.49323219417E+02 -0.26772336496E+02 -0.35235020884E+02  0.66264958099E+02  0.00000000000E+00 0.  1.
         12    1    3    3    0    0  0.12406871734E+03 -0.14861697469E+03  0.96376211156E+01  0.19383739456E+03  0.00000000000E+00 0. -1.
        -13    1    5    5    0    0 -0.54984863686E+01  0.13810842835E+02  0.12525667042E+02  0.19438751683E+02  0.00000000000E+00 0.  1.
         14    1    5    5    0    0  0.39991836192E+02 -0.89593815365E+02  0.23617343506E+03  0.25574262480E+03  0.00000000000E+00 0. -1.
          5    1    4    4  501    0 -0.65845153159E+02  0.22476151407E+03 -0.62874380746E+01  0.23433937842E+03  0.47000000000E+01 0.  1.
         -5    1    4    4    0  501 -0.96152438483E+02  0.20411559774E+03  0.11429018921E+03  0.25296799405E+03  0.47000000000E+01 0.  1.
          1    1    1    2  502    0 -0.18902746127E+01 -0.12076992809E+03 -0.41261670925E+03  0.42993196836E+03  0.00000000000E+00 0. -1.
          1    1    1    2  503    0 -0.43997420331E+02 -0.56934900007E+02  0.22206024097E+03  0.23342687603E+03  0.00000000000E+00 0. -1.
<mgrwt>
<rscale>  0 0.93505997E+02</rscale>
<asrwt>0</asrwt>
<pdfrwt beam="1">  1        2 0.13430132E+00 0.71953845E+02</pdfrwt>
<pdfrwt beam="2">  1        2 0.11363250E+00 0.12151361E+03</pdfrwt>
<totfact> 0.21035109E+02</totfact>
</mgrwt>
</event>
<event>
13    1  0.1595792E-008  0.2215915E+03  0.7546771E-02  0.1223941E+00
         -1   -1    0    0    0  501 -0.00000000000E+00  0.00000000000E+00  0.28381068558E+03  0.28381068558E+03  0.00000000000E+00 0.  1.
          2   -1    0    0  503    0  0.00000000000E+00 -0.00000000000E+00 -0.40857744849E+04  0.40857744849E+04  0.00000000000E+00 0. -1.
         24    2    1    2    0    0  0.17106366346E+03 -0.13532186604E+03  0.46962937323E+01  0.23360566160E+03  0.83515061956E+02 0.  0.
         25    2    1    2    0    0 -0.60880421716E+02  0.51425071592E+02 -0.35077614348E+03  0.38081360470E+03  0.12499653979E+03 0.  0.
         24    2    1    2    0    0  0.17646628992E+02 -0.29883638376E+01 -0.98416469729E+03  0.98753609482E+03  0.79542776773E+02 0.  0.
        -13    1    5    5    0    0 -0.29052899875E+02  0.10256994881E+02 -0.27723378254E+03  0.27894057991E+03  0.00000000000E+00 0.  1.
         14    1    5    5    0    0  0.46699528867E+02 -0.13245358718E+02 -0.70693091475E+03  0.70859551491E+03  0.00000000000E+00 0. -1.
        -13    1    3    3    0    0  0.52046377560E+02 -0.96432630241E+01  0.26416757673E+02  0.59157949802E+02  0.00000000000E+00 0.  1.
         14    1    3    3    0    0  0.11901728590E+03 -0.12567860301E+03 -0.21720463941E+02  0.17444771180E+03  0.00000000000E+00 0. -1.
          5    1    4    4  502    0 -0.40245247794E+02 -0.34593956593E+02 -0.81752297765E+02  0.97580479567E+02  0.47000000000E+01 0.  1.
         -5    1    4    4    0  502 -0.20635173922E+02  0.86019028185E+02 -0.26902384571E+03  0.28323312514E+03  0.47000000000E+01 0.  1.
          1    1    1    2  503    0  0.30245612061E+02 -0.73094867309E+02 -0.25332314877E+04  0.25344663003E+04  0.00000000000E+00 0. -1.
         -2    1    1    2    0  501 -0.15807548280E+03  0.15998002559E+03  0.61512235478E+02  0.23316350907E+03  0.00000000000E+00 0.  1.
<mgrwt>
<rscale>  0 0.13239742E+03</rscale>
<asrwt>0</asrwt>
<pdfrwt beam="2">  1        2 0.60084917E+00 0.79105352E+02</pdfrwt>
<pdfrwt beam="1">  1       -1 0.41736867E-01 0.22159154E+03</pdfrwt>
<totfact> 0.44646833E+00</totfact>
</mgrwt>
</event>
<event>
13    1  0.1595792E-008  0.1172289E+03  0.7546771E-02  0.1428162E+00
          2   -1    0    0  502    0  0.00000000000E+00  0.00000000000E+00  0.19700477972E+04  0.19700477972E+04  0.00000000000E+00 0. -1.
          2   -1    0    0  503    0 -0.00000000000E+00 -0.00000000000E+00 -0.12576392350E+04  0.12576392350E+04  0.00000000000E+00 0. -1.
         24    2    1    2    0    0 -0.13422395665E+03  0.13714480456E+02 -0.11627350426E+03  0.19595488466E+03  0.81698418072E+02 0.  0.
         25    2    1    2    0    0  0.49627671804E+02 -0.30340124954E+03  0.44995627939E+03  0.55910753704E+03  0.12500144232E+03 0.  0.
         24    2    1    2    0    0  0.25069674491E+02  0.19655023998E+03  0.11142170675E+04  0.11345021674E+04  0.79718309332E+02 0.  0.
        -13    1    3    3    0    0 -0.12389952207E+02 -0.13001462586E+02  0.81991979358E+01  0.19742740231E+02  0.00000000000E+00 0.  1.
         14    1    3    3    0    0 -0.12183400444E+03  0.26715943042E+02 -0.12447270220E+03  0.17621214443E+03  0.00000000000E+00 0. -1.
        -13    1    5    5    0    0  0.71788134340E+01  0.86409291035E+01  0.12813055039E+02  0.17040404852E+02  0.00000000000E+00 0.  1.
         14    1    5    5    0    0  0.17890861057E+02  0.18790931088E+03  0.11014040125E+04  0.11174617625E+04  0.00000000000E+00 0. -1.
          5    1    4    4  501    0  0.65018595250E+02 -0.22987508901E+03  0.40831692440E+03  0.47309066259E+03  0.47000000000E+01 0. -1.
         -5    1    4    4    0  501 -0.15390923446E+02 -0.73526160526E+02  0.41639354990E+02  0.86016874450E+02  0.47000000000E+01 0. -1.
          1    1    1    2  502    0  0.17835467997E+02 -0.16447527959E+02  0.29750548716E+03  0.29849311548E+03  0.00000000000E+00 0. -1.
          1    1    1    2  503    0  0.41691142359E+02  0.10958405706E+03 -0.10329967676E+04  0.10396293276E+04  0.00000000000E+00 0. -1.
<mgrwt>
<rscale>  0 0.53330674E+02</rscale>
<asrwt>0</asrwt>
<pdfrwt beam="1">  1        2 0.28971291E+00 0.24261597E+02</pdfrwt>
<pdfrwt beam="2">  1        2 0.18494695E+00 0.11722892E+03</pdfrwt>
<totfact> 0.36345543E+01</totfact>
</mgrwt>
</event>
<event>
13    1  0.1595792E-008  0.1373994E+03  0.7546771E-02  0.1258673E+00
          2   -1    0    0  503    0  0.00000000000E+00  0.00000000000E+00  0.37911354624E+04  0.37911354624E+04  0.00000000000E+00 0. -1.
          2   -1    0    0  502    0 -0.00000000000E+00 -0.00000000000E+00 -0.35518187839E+04  0.35518187839E+04  0.00000000000E+00 0. -1.
         24    2    1    2    0    0  0.12003305712E+03 -0.19350213487E+03 -0.71103241396E+02  0.25131184313E+03  0.79063016377E+02 0.  0.
         25    2    1    2    0    0  0.36825282514E+03  0.35644139838E+03 -0.43959310313E+03  0.68667604996E+03  0.12498514941E+03 0.  0.
         24    2    1    2    0    0 -0.43946909433E+03 -0.20450132763E+03  0.20021487665E+04  0.20613596377E+04  0.75166445636E+02 0.  0.
        -11    1    5    5    0    0 -0.37431894990E+03 -0.14235192880E+03  0.16365034540E+04  0.16847914716E+04  0.00000000000E+00 0.  1.
         12    1    5    5    0    0 -0.65150144429E+02 -0.62149398827E+02  0.36564531256E+03  0.37656816606E+03  0.00000000000E+00 0. -1.
        -13    1    3    3    0    0  0.64505954707E+02 -0.48144575444E+02 -0.62918726813E+00  0.80494187454E+02  0.00000000000E+00 0.  1.
         14    1    3    3    0    0  0.55527102414E+02 -0.14535755943E+03 -0.70474054128E+02  0.17081765567E+03  0.00000000000E+00 0. -1.
          5    1    4    4  501    0  0.15797202106E+03  0.78560565415E+02 -0.18018887746E+03  0.25222419280E+03  0.47000000000E+01 0. -1.
         -5    1    4    4    0  501  0.21028080408E+03  0.27788083296E+03 -0.25940422567E+03  0.43445185716E+03  0.47000000000E+01 0. -1.
          1    1    1    2  502    0 -0.13596563295E+03  0.20226216564E+02 -0.27948786220E+04  0.27982570047E+04  0.00000000000E+00 0. -1.
          1    1    1    2  503    0  0.87148845029E+02  0.21335847555E+02  0.15427428785E+04  0.15453497108E+04  0.00000000000E+00 0. -1.
<mgrwt>
<rscale>  0 0.11103074E+03</rscale>
<asrwt>0</asrwt>
<pdfrwt beam="1">  1        2 0.55751992E+00 0.89722570E+02</pdfrwt>
<pdfrwt beam="2">  1        2 0.52232629E+00 0.13739939E+03</pdfrwt>
<totfact> 0.21502703E-01</totfact>
</mgrwt>
</event>
<event>
13    1  0.1595792E-008  0.5540277E+02  0.7546771E-02  0.1468195E+00
         -1   -1    0    0    0  501 -0.00000000000E+00  0.00000000000E+00  0.12718881150E+04  0.12718881150E+04  0.00000000000E+00 0.  1.
          2   -1    0    0  503    0  0.00000000000E+00 -0.00000000000E+00 -0.16714154096E+04  0.16714154096E+04  0.00000000000E+00 0. -1.
         24    2    1    2    0    0 -0.17063544135E+02  0.15119531825E+02  0.26916300396E+03  0.28135890391E+03  0.78704163362E+02 0.  0.
         25    2    1    2    0    0  0.62619941875E+02 -0.10186186824E+02  0.24573641377E+03  0.28290059125E+03  0.12498537496E+03 0.  0.
         24    2    1    2    0    0 -0.31500656966E+02 -0.52024697167E+02 -0.60838950895E+01  0.10184064385E+03  0.81459452837E+02 0.  0.
        -13    1    3    3    0    0 -0.48245749811E+02  0.12751395564E+02  0.18357450579E+03  0.19023629947E+03  0.00000000000E+00 0.  1.
         14    1    3    3    0    0  0.31182205676E+02  0.23681362606E+01  0.85588498172E+02  0.91122604437E+02  0.00000000000E+00 0. -1.
        -13    1    5    5    0    0 -0.30331120761E+02 -0.62028800371E+01 -0.35711140556E+02  0.47262439285E+02  0.00000000000E+00 0.  1.
         14    1    5    5    0    0 -0.11695362045E+01 -0.45821817130E+02  0.29627245466E+02  0.54578204568E+02  0.00000000000E+00 0. -1.
          5    1    4    4  502    0  0.29488931867E+02  0.41627248192E+02  0.19907007280E+03  0.20555633967E+03  0.47000000000E+01 0. -1.
         -5    1    4    4    0  502  0.33131010008E+02 -0.51813435016E+02  0.46666340972E+02  0.77344251577E+02  0.47000000000E+01 0. -1.
          1    1    1    2  503    0 -0.38063244511E+02 -0.31404891006E+01 -0.15914114257E+04  0.15918696552E+04  0.00000000000E+00 0. -1.
         -2    1    1    2    0  501  0.24007503736E+02  0.50231841267E+02  0.68306860847E+03  0.68533373037E+03  0.00000000000E+00 0.  1.
<mgrwt>
<rscale>  0 0.45999724E+02</rscale>
<asrwt>0</asrwt>
<pdfrwt beam="2">  1        2 0.24579638E+00 0.38192581E+02</pdfrwt>
<pdfrwt beam="1">  1       -1 0.18704237E+00 0.55402766E+02</pdfrwt>
<totfact> 0.38697552E+00</totfact>
</mgrwt>
</event>
<event>
13    1  0.1595792E-008  0.2588437E+03  0.7546771E-02  0.1227542E+00
          2   -1    0    0  502    0  0.00000000000E+00  0.00000000000E+00  0.63924139555E+03  0.63924139555E+03  0.00000000000E+00 0. -1.
          2   -1    0    0  503    0 -0.00000000000E+00 -0.00000000000E+00 -0.93024708233E+03  0.93024708233E+03  0.00000000000E+00 0. -1.
         24    2    1    2    0    0 -0.42710497946E+02 -0.35442347237E+02 -0.10467013015E+03  0.14391133186E+03  0.81696319864E+02 0.  0.
         25    2    1    2    0    0 -0.71955363581E+02 -0.16382450113E+03 -0.72172818095E+02  0.22988973395E+03  0.12499733032E+03 0.  0.
         24    2    1    2    0    0  0.28623445958E+02 -0.13643533993E+03  0.63741569691E+02  0.17349764869E+03  0.81268337956E+02 0.  0.
        -11    1    3    3    0    0  0.18683953616E+02  0.10635011199E+02 -0.17178776828E+02  0.27519156224E+02  0.00000000000E+00 0.  1.
         12    1    3    3    0    0 -0.61394451562E+02 -0.46077358436E+02 -0.87491353319E+02  0.11639217563E+03  0.00000000000E+00 0. -1.
        -11    1    5    5    0    0 -0.16733699979E+01  0.10661406642E+02  0.13770332282E+01  0.10879429179E+02  0.00000000000E+00 0.  1.
         12    1    5    5    0    0  0.30296815956E+02 -0.14709674657E+03  0.62364536463E+02  0.16261821951E+03  0.00000000000E+00 0. -1.
          5    1    4    4  501    0 -0.55664324204E+01 -0.67362364743E+02  0.30292018416E+02  0.74218392150E+02  0.47000000000E+01 0.  1.
         -5    1    4    4    0  501 -0.66388931160E+02 -0.96462136388E+02 -0.10246483651E+03  0.15567134180E+03  0.47000000000E+01 0.  1.
          1    1    1    2  502    0  0.88323357607E+02  0.27050976080E+03  0.37203942482E+03  0.46839073412E+03  0.00000000000E+00 0. -1.
          1    1    1    2  503    0 -0.22809420383E+01  0.65192427497E+02 -0.54994373305E+03  0.55379902927E+03  0.00000000000E+00 0. -1.
<mgrwt>
<rscale>  0 0.12994221E+03</rscale>
<asrwt>0</asrwt>
<pdfrwt beam="1">  1        2 0.94006088E-01 0.25884375E+03</pdfrwt>
<pdfrwt beam="2">  1        2 0.13680104E+00 0.65232318E+02</pdfrwt>
<totfact> 0.25301838E+02</totfact>
</mgrwt>
</event>
<event>
13    1  0.1595792E-008  0.8948900E+02  0.7546771E-02  0.1397350E+00
          2   -1    0    0  503    0  0.00000000000E+00  0.00000000000E+00  0.49246955252E+03  0.49246955252E+03  0.00000000000E+00 0. -1.
         -3   -1    0    0    0  501 -0.00000000000E+00 -0.00000000000E+00 -0.15508287641E+04  0.15508287641E+04  0.00000000000E+00 0.  1.
         24    2    1    2    0    0  0.24466028112E+02  0.59129111274E+02 -0.54856739303E+03  0.55733495154E+03  0.74841333363E+02 0.  0.
         25    2    1    2    0    0  0.10858951795E+03 -0.56857209056E+02 -0.15633036504E+03  0.23471082866E+03  0.12500225769E+03 0.  0.
         24    2    1    2    0    0 -0.11062203056E+03  0.45496022006E+02  0.16076901211E+03  0.21571853503E+03  0.79879217815E+02 0.  0.
        -13    1    3    3    0    0  0.41869978239E+02  0.12821061589E+02 -0.17000801713E+03  0.17555683008E+03  0.00000000000E+00 0.  1.
         14    1    3    3    0    0 -0.17403950127E+02  0.46308049684E+02 -0.37855937590E+03  0.38177812146E+03  0.00000000000E+00 0. -1.
        -13    1    5    5    0    0 -0.10014358011E+02 -0.20049772415E+02  0.15508312714E+02  0.27254146538E+02  0.00000000000E+00 0.  1.
         14    1    5    5    0    0 -0.10060767255E+03  0.65545794422E+02  0.14526069939E+03  0.18846438850E+03  0.00000000000E+00 0. -1.
          5    1    4    4  502    0  0.12254265835E+03 -0.73493602031E+01 -0.10122452148E+03  0.15918294494E+03  0.47000000000E+01 0.  1.
         -5    1    4    4    0  502 -0.13953140402E+02 -0.49507848853E+02 -0.55105843558E+02  0.75527883720E+02  0.47000000000E+01 0.  1.
          1    1    1    2  503    0 -0.55897842663E+02 -0.70371275459E+02  0.25235785667E+03  0.26788275989E+03  0.00000000000E+00 0. -1.
         -4    1    1    2    0  501  0.33464327160E+02  0.22603351235E+02 -0.76658832229E+03  0.76765124149E+03  0.00000000000E+00 0.  1.
<mgrwt>
<rscale>  0 0.60115044E+02</rscale>
<asrwt>0</asrwt>
<pdfrwt beam="1">  1        2 0.72421994E-01 0.89488995E+02</pdfrwt>
<pdfrwt beam="2">  1       -3 0.22806305E+00 0.40382827E+02</pdfrwt>
<totfact> 0.49104637E+00</totfact>
</mgrwt>
</event>
<event>
13    1  0.1595792E-008  0.9108025E+02  0.7546771E-02  0.1432753E+00
          2   -1    0    0  503    0  0.00000000000E+00  0.00000000000E+00  0.19305375640E+04  0.19305375640E+04  0.00000000000E+00 0. -1.
         -1   -1    0    0    0  501 -0.00000000000E+00 -0.00000000000E+00 -0.51197537585E+03  0.51197537585E+03  0.00000000000E+00 0.  1.
         24    2    1    2    0    0 -0.89847344112E+01 -0.59094098732E+02 -0.15027148675E+02  0.10170274280E+03  0.80899905674E+02 0.  0.
         25    2    1    2    0    0  0.11561294904E+03 -0.18007297663E+03  0.30703021570E+03  0.39456783315E+03  0.12499436272E+03 0.  0.
         24    2    1    2    0    0 -0.87243694841E+02  0.80984101000E+02  0.28449029577E+03  0.31837519910E+03  0.79108483186E+02 0.  0.
        -13    1    5    5    0    0  0.14026638969E+02  0.38887228800E+01  0.43007895824E+02  0.45404271491E+02  0.00000000000E+00 0.  1.
         14    1    5    5    0    0 -0.10127033381E+03  0.77095378120E+02  0.24148239994E+03  0.27297092761E+03  0.00000000000E+00 0. -1.
        -13    1    3    3    0    0  0.29266328923E+02 -0.48905655418E+02  0.52350140560E+01  0.57233613485E+02  0.00000000000E+00 0.  1.
         14    1    3    3    0    0 -0.38251063334E+02 -0.10188443314E+02 -0.20262162731E+02  0.44469129313E+02  0.00000000000E+00 0. -1.
          5    1    4    4  502    0  0.11938811165E+02 -0.11065832755E+02 -0.10685903304E+02  0.20031634881E+02  0.47000000000E+01 0. -1.
         -5    1    4    4    0  502  0.10367413788E+03 -0.16900714387E+03  0.31771611900E+03  0.37453619827E+03  0.47000000000E+01 0. -1.
          1    1    1    2  503    0 -0.14143280910E+02  0.26637931833E+02  0.12237489806E+04  0.12241205739E+04  0.00000000000E+00 0. -1.
         -2    1    1    2    0  501 -0.52412388803E+01  0.13154504252E+03 -0.38168015524E+03  0.40374659095E+03  0.00000000000E+00 0.  1.
<mgrwt>
<rscale>  0 0.52411446E+02</rscale>
<asrwt>0</asrwt>
<pdfrwt beam="1">  1        2 0.28390258E+00 0.30159771E+02</pdfrwt>
<pdfrwt beam="2">  1       -1 0.75290497E-01 0.91080255E+02</pdfrwt>
<totfact> 0.24740068E+01</totfact>
</mgrwt>
</event>
<event>
13    1  0.1595792E-008  0.1273434E+03  0.7546771E-02  0.1369698E+00
          2   -1    0    0  503    0  0.00000000000E+00  0.00000000000E+00  0.99052907794E+03  0.99052907794E+03  0.00000000000E+00 0. -1.
          2   -1    0    0  502    0 -0.00000000000E+00 -0.00000000000E+00 -0.16330365903E+04  0.16330365903E+04  0.00000000000E+00 0. -1.
         24    2    1    2    0    0  0.12810068982E+03  0.11608001808E+03 -0.41257829226E+03  0.45416713267E+03  0.78502100756E+02 0.  0.
         25    2    1    2    0    0 -0.28111495970E+03 -0.16559250490E+03  0.11787145455E+03  0.36873227352E+03  0.12499324579E+03 0.  0.
         24    2    1    2    0    0  0.16020547454E+03 -0.49057663981E+02  0.40879195881E+03  0.44896780770E+03  0.79929833531E+02 0.  0.
        -11    1    5    5    0    0  0.23784423846E+02  0.89556511883E+01  0.18397708021E+02  0.31374801455E+02  0.00000000000E+00 0.  1.
         12    1    5    5    0    0  0.13642105070E+03 -0.58013315170E+02  0.39039425079E+03  0.41759300624E+03  0.00000000000E+00 0. -1.
        -13    1    3    3    0    0  0.91863616180E+02  0.35742909904E+02 -0.17627113044E+03  0.20196036990E+03  0.00000000000E+00 0.  1.
         14    1    3    3    0    0  0.36237073643E+02  0.80337108177E+02 -0.23630716183E+03  0.25220676277E+03  0.00000000000E+00 0. -1.
          5    1    4    4  501    0 -0.52162773117E+02  0.10688909353E+02  0.46997984493E+02  0.71176598884E+02  0.47000000000E+01 0.  1.
         -5    1    4    4    0  501 -0.22895218658E+03 -0.17628141425E+03  0.70873470059E+02  0.29755567464E+03  0.47000000000E+01 0.  1.
          1    1    1    2  502    0  0.14512466836E+02  0.12668322828E+03 -0.10492118501E+04  0.10569317662E+04  0.00000000000E+00 0. -1.
          1    1    1    2  503    0 -0.21703671500E+02 -0.28113077482E+02  0.29261921664E+03  0.29476668813E+03  0.00000000000E+00 0. -1.
<mgrwt>
<rscale>  0 0.67251346E+02</rscale>
<asrwt>0</asrwt>
<pdfrwt beam="1">  1        2 0.14566604E+00 0.35516116E+02</pdfrwt>
<pdfrwt beam="2">  1        2 0.24015244E+00 0.12734342E+03</pdfrwt>
<totfact> 0.65776048E+01</totfact>
</mgrwt>
</event>
<event>
13    1  0.1595792E-008  0.8358103E+02  0.7546771E-02  0.1352175E+00
          2   -1    0    0  503    0  0.00000000000E+00  0.00000000000E+00  0.15088329734E+04  0.15088329734E+04  0.00000000000E+00 0. -1.
          2   -1    0    0  502    0 -0.00000000000E+00 -0.00000000000E+00 -0.50551268156E+03  0.50551268156E+03  0.00000000000E+00 0. -1.
         24    2    1    2    0    0 -0.24032085582E+03  0.23517290543E+03  0.10675619076E+03  0.36167313260E+03  0.79687899895E+02 0.  0.
         25    2    1    2    0    0  0.21498128082E+03 -0.37038400354E+03  0.20139688323E+03  0.48947635841E+03  0.12500055875E+03 0.  0.
         24    2    1    2    0    0  0.68638401460E+02  0.26237875773E+01  0.19303390984E+03  0.21914615335E+03  0.77748516144E+02 0.  0.
        -13    1    3    3    0    0 -0.16630312755E+03  0.10762864195E+03  0.61181793576E+02  0.20732550896E+03  0.00000000000E+00 0.  1.
         14    1    3    3    0    0 -0.74017728275E+02  0.12754426348E+03  0.45574397180E+02  0.15434762364E+03  0.00000000000E+00 0. -1.
        -13    1    5    5    0    0  0.14561804991E+02 -0.34970714703E+02  0.71237100293E+02  0.80682845200E+02  0.00000000000E+00 0.  1.
         14    1    5    5    0    0  0.54076596469E+02  0.37594502280E+02  0.12179680955E+03  0.13846330815E+03  0.00000000000E+00 0. -1.
          5    1    4    4  501    0 -0.29453166506E+01 -0.82589248403E+02  0.18725206591E+02  0.84866849852E+02  0.47000000000E+01 0. -1.
         -5    1    4    4    0  501  0.21792659747E+03 -0.28779475513E+03  0.18267167664E+03  0.40460950856E+03  0.47000000000E+01 0. -1.
          1    1    1    2  502    0  0.16860156052E+01  0.62660933802E+02 -0.21405860338E+03  0.22304779970E+03  0.00000000000E+00 0. -1.
          1    1    1    2  503    0 -0.44984842058E+02  0.69926376729E+02  0.71619191134E+03  0.72100221084E+03  0.00000000000E+00 0. -1.
<mgrwt>
<rscale>  0 0.72382048E+02</rscale>
<asrwt>0</asrwt>
<pdfrwt beam="1">  1        2 0.22188720E+00 0.83581029E+02</pdfrwt>
<pdfrwt beam="2">  1        2 0.74340101E-01 0.62683612E+02</pdfrwt>
<totfact> 0.16481327E+02</totfact>
</mgrwt>
</event>
<event>
13    1  0.1595792E-008  0.9203055E+02  0.7546771E-02  0.1382654E+00
         -1   -1    0    0    0  501 -0.00000000000E+00  0.00000000000E+00  0.13683950402E+03  0.13683950402E+03  0.00000000000E+00 0.  1.
          2   -1    0    0  503    0  0.00000000000E+00 -0.00000000000E+00 -0.19682919993E+04  0.19682919993E+04  0.00000000000E+00 0. -1.
         24    2    1    2    0    0  0.11535767948E+00 -0.31402987396E+00 -0.98149322071E+02  0.12507650217E+03  0.77528898157E+02 0.  0.
         25    2    1    2    0    0 -0.12724962250E+03 -0.27889667403E+02 -0.74944301280E+02  0.19547740425E+03  0.12499786919E+03 0.  0.
         24    2    1    2    0    0 -0.13456046872E+02 -0.38729940268E+02 -0.29857305046E+03  0.31088817231E+03  0.76318515099E+02 0.  0.
        -13    1    5    5    0    0 -0.23281984180E+02  0.10876241210E+02 -0.18218829547E+03  0.18399162594E+03  0.00000000000E+00 0.  1.
         14    1    5    5    0    0  0.98259373080E+01 -0.49606181478E+02 -0.11638475499E+03  0.12689654637E+03  0.00000000000E+00 0. -1.
        -13    1    3    3    0    0 -0.15123605072E+01 -0.38748394380E+02 -0.43931960914E+02  0.58598144093E+02  0.00000000000E+00 0.  1.
         14    1    3    3    0    0  0.16277181866E+01  0.38434364507E+02 -0.54217361157E+02  0.66478358075E+02  0.00000000000E+00 0. -1.
          5    1    4    4  502    0 -0.22139804620E+02  0.20279556888E+02 -0.73737283698E+02  0.79754049323E+02  0.47000000000E+01 0. -1.
         -5    1    4    4    0  502 -0.10510981788E+03 -0.48169224292E+02 -0.12070175813E+01  0.11572335492E+03  0.47000000000E+01 0. -1.
          1    1    1    2  503    0  0.10721614357E+03  0.37970450822E+02 -0.14055082061E+04  0.14101029657E+04  0.00000000000E+00 0. -1.
         -2    1    1    2    0  501  0.33374168126E+02  0.28963186723E+02  0.45722384676E+02  0.63586458808E+02  0.00000000000E+00 0.  1.
<mgrwt>
<rscale>  0 0.63771254E+02</rscale>
<asrwt>0</asrwt>
<pdfrwt beam="2">  1        2 0.28945470E+00 0.92030548E+02</pdfrwt>
<pdfrwt beam="1">  1       -1 0.20123457E-01 0.44189380E+02</pdfrwt>
<totfact> 0.20459389E+02</totfact>
</mgrwt>
</event>
<event>
13    1  0.1595792E-008  0.6950171E+02  0.7546771E-02  0.1416598E+00
         -1   -1    0    0    0  501  0.00000000000E+00  0.00000000000E+00  0.11177635654E+04  0.11177635654E+04  0.00000000000E+00 0.  1.
         -1   -1    0    0    0  502 -0.00000000000E+00 -0.00000000000E+00 -0.98389944076E+03  0.98389944076E+03  0.00000000000E+00 0.  1.
         24    2    1    2    0    0 -0.26485680086E+01  0.98720771120E+00 -0.26815623751E+03  0.28005081935E+03  0.80701327193E+02 0.  0.
         25    2    1    2    0    0 -0.23114395990E+01  0.30014026193E+02  0.73366924023E+02  0.14802563964E+03  0.12499079938E+03 0.  0.
         24    2    1    2    0    0  0.19493972394E+02 -0.81788194807E+01  0.76806120328E+02  0.11449445571E+03  0.82236805748E+02 0.  0.
        -13    1    5    5    0    0  0.51722986377E+02 -0.81317274422E+01  0.42624629973E+02  0.67514823493E+02  0.00000000000E+00 0.  1.
         14    1    5    5    0    0 -0.32229013983E+02 -0.47092038556E-01  0.34181490355E+02  0.46979632213E+02  0.00000000000E+00 0. -1.
        -13    1    3    3    0    0 -0.12683611565E+02  0.27039188815E+02 -0.23417586471E+03  0.23607271622E+03  0.00000000000E+00 0.  1.
         14    1    3    3    0    0  0.10035043556E+02 -0.26051981104E+02 -0.33980372804E+02  0.43978103126E+02  0.00000000000E+00 0. -1.
          5    1    4    4  503    0 -0.47574343943E+02  0.32015310678E+02  0.83460151211E+02  0.10137053398E+03  0.47000000000E+01 0.  1.
         -5    1    4    4    0  503  0.45262904344E+02 -0.20012844847E+01 -0.10093227187E+02  0.46655105661E+02  0.47000000000E+01 0.  1.
         -2    1    1    2    0  501 -0.17538859846E+02 -0.67436001452E+02  0.90336173056E+03  0.90604505525E+03  0.00000000000E+00 0.  1.
         -2    1    1    2    0  502  0.30048950597E+01  0.44613587029E+02 -0.65151441274E+03  0.65304703624E+03  0.00000000000E+00 0.  1.
<mgrwt>
<rscale>  0 0.55747162E+02</rscale>
<asrwt>0</asrwt>
<pdfrwt beam="1">  1       -1 0.16437700E+00 0.69501713E+02</pdfrwt>
<pdfrwt beam="2">  1       -1 0.14469109E+00 0.44714668E+02</pdfrwt>
<totfact> 0.13000075E+00</totfact>
</mgrwt>
</event>
<event>
13    1  0.1595792E-008  0.7286413E+02  0.7546771E-02  0.1491320E+00
          2   -1    0    0  502    0  0.00000000000E+00  0.00000000000E+00  0.68478356293E+03  0.68478356293E+03  0.00000000000E+00 0. -1.
          2   -1    0    0  503    0 -0.00000000000E+00 -0.00000000000E+00 -0.15502249088E+04  0.15502249088E+04  0.00000000000E+00 0. -1.
         24    2    1    2    0    0  0.86288968068E+02  0.12878297406E+02 -0.20205889302E+02  0.12209269914E+03  0.82986219745E+02 0.  0.
         25    2    1    2    0    0 -0.10596312498E+03 -0.19958722634E+02 -0.28006139541E+03  0.32509801052E+03  0.12501118662E+03 0.  0.
         24    2    1    2    0    0 -0.14413183376E+02  0.44669892267E+02  0.18036052066E+02  0.95196063681E+02  0.80832247501E+02 0.  0.
        -11    1    5    5    0    0 -0.42805802413E+02  0.44918144756E+02  0.23374376088E+02  0.66304885989E+02  0.00000000000E+00 0.  1.
         12    1    5    5    0    0  0.28392619037E+02 -0.24825248874E+00 -0.53383240212E+01  0.28891177692E+02  0.00000000000E+00 0. -1.
        -13    1    3    3    0    0  0.66852849853E+02  0.46470109239E+02 -0.16813800054E+02  0.83135302119E+02  0.00000000000E+00 0.  1.
         14    1    3    3    0    0  0.19436118214E+02 -0.33591811834E+02 -0.33920892479E+01  0.38957397025E+02  0.00000000000E+00 0. -1.
          5    1    4    4  501    0  0.16355136111E+02  0.19030494238E+02 -0.10437744388E+03  0.10745413430E+03  0.47000000000E+01 0. -1.
         -5    1    4    4    0  501 -0.12231826109E+03 -0.38989216872E+02 -0.17568395153E+03  0.21764387622E+03  0.47000000000E+01 0. -1.
          1    1    1    2  502    0  0.57696623600E+02 -0.44718384682E+02  0.55216974541E+03  0.55697402278E+03  0.00000000000E+00 0. -1.
          1    1    1    2  503    0 -0.23609283310E+02  0.71289176436E+01 -0.11353798587E+04  0.11356476756E+04  0.00000000000E+00 0. -1.
<mgrwt>
<rscale>  0 0.42390839E+02</rscale>
<asrwt>0</asrwt>
<pdfrwt beam="1">  1        2 0.10070346E+00 0.72864129E+02</pdfrwt>
<pdfrwt beam="2">  1        2 0.22797425E+00 0.24662111E+02</pdfrwt>
<totfact> 0.12524273E+02</totfact>
</mgrwt>
</event>
<event>
13    1  0.1595792E-008  0.7878219E+02  0.7546771E-02  0.1437938E+00
          2   -1    0    0  502    0  0.00000000000E+00  0.00000000000E+00  0.12193128996E+04  0.12193128996E+04  0.00000000000E+00 0. -1.
          2   -1    0    0  503    0 -0.00000000000E+00 -0.00000000000E+00 -0.25691799101E+04  0.25691799101E+04  0.00000000000E+00 0. -1.
         24    2    1    2    0    0 -0.20276616071E+03 -0.45414538443E+03 -0.29745314742E+03  0.58271169653E+03  0.60929469362E+02 0.  0.
         25    2    1    2    0    0  0.64893910759E+03  0.73216296027E+03  0.11156744961E+03  0.99260111265E+03  0.12500042913E+03 0.  0.
         24    2    1    2    0    0 -0.39530797781E+03 -0.21079548200E+03 -0.18179086138E+02  0.45551597399E+03  0.80381532915E+02 0.  0.
        -11    1    3    3    0    0 -0.19498415336E+02 -0.20870180150E+02 -0.56339846274E+01  0.29111757125E+02  0.00000000000E+00 0.  1.
         12    1    3    3    0    0 -0.18326774537E+03 -0.43327520428E+03 -0.29181916280E+03  0.55359993941E+03  0.00000000000E+00 0. -1.
        -11    1    5    5    0    0 -0.24172241997E+03 -0.15877040406E+03  0.16572035801E+02  0.28967637442E+03  0.00000000000E+00 0.  1.
         12    1    5    5    0    0 -0.15358555784E+03 -0.52025077938E+02 -0.34751121939E+02  0.16583959958E+03  0.00000000000E+00 0. -1.
          5    1    4    4  501    0  0.44962161203E+03  0.56797807496E+03  0.44622389896E+02  0.72579055885E+03  0.47000000000E+01 0. -1.
         -5    1    4    4    0  501  0.19931749556E+03  0.16418488531E+03  0.66945059715E+02  0.26681055380E+03  0.47000000000E+01 0. -1.
          1    1    1    2  502    0  0.17726728805E+02 -0.28465485697E+02  0.30393918621E+03  0.30578350136E+03  0.00000000000E+00 0. -1.
          1    1    1    2  503    0 -0.68591697870E+02 -0.38756608144E+02 -0.14497414127E+04  0.14518805252E+04  0.00000000000E+00 0. -1.
<mgrwt>
<rscale>  0 0.51399146E+02</rscale>
<asrwt>0</asrwt>
<pdfrwt beam="1">  1        2 0.17931072E+00 0.33533875E+02</pdfrwt>
<pdfrwt beam="2">  1        2 0.37782057E+00 0.78782191E+02</pdfrwt>
<totfact> 0.18530836E+01</totfact>
</mgrwt>
</event>
<event>
13    1  0.1595792E-008  0.1582871E+03  0.7546771E-02  0.1306227E+00
         -3   -1    0    0    0  501 -0.00000000000E+00  0.00000000000E+00  0.11570948421E+04  0.11570948421E+04  0.00000000000E+00 0.  1.
          2   -1    0    0  503    0  0.00000000000E+00 -0.00000000000E+00 -0.25641024690E+04  0.25641024690E+04  0.00000000000E+00 0. -1.
         24    2    1    2    0    0  0.15844684946E+03  0.33581470273E+02  0.30502750154E+03  0.35437179824E+03  0.79400726965E+02 0.  0.
         25    2    1    2    0    0 -0.87551304441E+01 -0.78772494294E+02 -0.50017431224E+03  0.52161372018E+03  0.12499908918E+03 0.  0.
         24    2    1    2    0    0 -0.26479419845E+02 -0.47692241952E+02 -0.74650182824E+03  0.75206377511E+03  0.73206780114E+02 0.  0.
        -11    1    5    5    0    0 -0.38897695181E+02 -0.60571876809E+02 -0.64416542867E+03  0.64817519425E+03  0.00000000000E+00 0.  1.
         12    1    5    5    0    0  0.12418275336E+02  0.12879634857E+02 -0.10233639957E+03  0.10388858086E+03  0.00000000000E+00 0. -1.
        -13    1    3    3    0    0  0.15896725527E+03  0.47255554105E+02  0.27129713733E+03  0.31797140180E+03  0.00000000000E+00 0.  1.
         14    1    3    3    0    0 -0.52040581117E+00 -0.13674083832E+02  0.33730364215E+02  0.36400396439E+02  0.00000000000E+00 0. -1.
          5    1    4    4  502    0 -0.76566908286E+01 -0.34315894117E+02 -0.46040620937E+03  0.46177069324E+03  0.47000000000E+01 0.  1.
         -5    1    4    4    0  502 -0.10984396154E+01 -0.44456600177E+02 -0.39768102865E+02  0.59843026949E+02  0.47000000000E+01 0.  1.
          1    1    1    2  503    0  0.30640517799E+02  0.39024410799E+02 -0.12706026359E+04  0.12715709986E+04  0.00000000000E+00 0. -1.
         -4    1    1    2    0  501 -0.15385281697E+03  0.53858855174E+02  0.80524364798E+03  0.82157701902E+03  0.00000000000E+00 0.  1.
<mgrwt>
<rscale>  0 0.88620377E+02</rscale>
<asrwt>0</asrwt>
<pdfrwt beam="2">  1        2 0.37707389E+00 0.49615985E+02</pdfrwt>
<pdfrwt beam="1">  1       -3 0.17016101E+00 0.15828712E+03</pdfrwt>
<totfact> 0.82313502E-01</totfact>
</mgrwt>
</event>
<event>
13    1  0.1595792E-008  0.2006176E+03  0.7546771E-02  0.1425280E+00
          2   -1    0    0  503    0  0.00000000000E+00  0.00000000000E+00  0.12931416320E+04  0.12931416320E+04  0.00000000000E+00 0. -1.
          2   -1    0    0  502    0 -0.00000000000E+00 -0.00000000000E+00 -0.12279724557E+04  0.12279724557E+04  0.00000000000E+00 0. -1.
         24    2    1    2    0    0 -0.67092515989E+02  0.10164964656E+02 -0.22823362077E+03  0.25113453516E+03  0.79832555331E+02 0.  0.
         25    2    1    2    0    0 -0.30672564722E+03  0.52674156086E+02 -0.71773550700E+03  0.79222764503E+03  0.12500077663E+03 0.  0.
         24    2    1    2    0    0  0.68704371200E+02  0.18332805017E+02  0.28523930177E+02  0.11183327424E+03  0.81465847271E+02 0.  0.
        -11    1    3    3    0    0 -0.83947992748E+02  0.69743401998E+00 -0.20011783702E+03  0.21701359541E+03  0.00000000000E+00 0.  1.
         12    1    3    3    0    0  0.16855476759E+02  0.94675306358E+01 -0.28115783750E+02  0.34120939744E+02  0.00000000000E+00 0. -1.
        -13    1    5    5    0    0  0.35207785105E+02  0.48818857479E+02  0.39890958336E+01  0.60322316460E+02  0.00000000000E+00 0.  1.
         14    1    5    5    0    0  0.33496586095E+02 -0.30486052461E+02  0.24534834343E+02  0.51510957775E+02  0.00000000000E+00 0. -1.
          5    1    4    4  501    0 -0.41698693864E+02 -0.16737715999E+02 -0.36931598608E+02  0.58352079505E+02  0.47000000000E+01 0. -1.
         -5    1    4    4    0  501 -0.26502695336E+03  0.69411872085E+02 -0.68080390839E+03  0.73387556553E+03  0.47000000000E+01 0. -1.
          1    1    1    2  502    0 -0.12741314592E+02 -0.69042820908E+01 -0.16865153779E+03  0.16927300850E+03  0.00000000000E+00 0. -1.
          1    1    1    2  503    0  0.31785510660E+03 -0.74267643668E+02  0.11512659117E+04  0.11966456247E+04  0.00000000000E+00 0. -1.
<mgrwt>
<rscale>  0 0.53919345E+02</rscale>
<asrwt>0</asrwt>
<pdfrwt beam="1">  1        2 0.19016789E+00 0.20061759E+03</pdfrwt>
<pdfrwt beam="2">  1        2 0.18058418E+00 0.14491729E+02</pdfrwt>
<totfact> 0.76067857E+01</totfact>
</mgrwt>
</event>
<event>
13    1  0.1595792E-008  0.6986161E+02  0.7546771E-02  0.1474740E+00
          2   -1    0    0  502    0  0.00000000000E+00  0.00000000000E+00  0.12128117734E+04  0.12128117734E+04  0.00000000000E+00 0. -1.
          2   -1    0    0  503    0 -0.00000000000E+00 -0.00000000000E+00 -0.11316378504E+04  0.11316378504E+04  0.00000000000E+00 0. -1.
         24    2    1    2    0    0 -0.21231291542E+02 -0.44570035030E+02 -0.36604301742E+03  0.37843552383E+03  0.82393563634E+02 0.  0.
         25    2    1    2    0    0 -0.10213675235E+03 -0.41358408462E+02 -0.30714014067E+03  0.34943119893E+03  0.12499865057E+03 0.  0.
         24    2    1    2    0    0  0.84391223771E+02  0.98775882893E+02  0.50609615665E+03  0.52863490407E+03  0.80268227392E+02 0.  0.
        -13    1    5    5    0    0  0.10938930812E+02  0.35391880888E+02  0.28221522907E+03  0.28463605000E+03  0.00000000000E+00 0.  1.
         14    1    5    5    0    0  0.73452292959E+02  0.63384002005E+02  0.22388092758E+03  0.24399885406E+03  0.00000000000E+00 0. -1.
        -13    1    3    3    0    0 -0.37634685359E+02  0.67855962030E+01 -0.20702116809E+03  0.21052358037E+03  0.00000000000E+00 0.  1.
         14    1    3    3    0    0  0.16403393817E+02 -0.51355631233E+02 -0.15902184933E+03  0.16791194345E+03  0.00000000000E+00 0. -1.
          5    1    4    4  501    0 -0.81998320366E+02  0.31095338928E+01 -0.72114222876E+02  0.10934324344E+03  0.47000000000E+01 0. -1.
         -5    1    4    4    0  501 -0.20138431986E+02 -0.44467942355E+02 -0.23502591779E+03  0.24008795550E+03  0.47000000000E+01 0. -1.
          1    1    1    2  502    0  0.66687427815E+02 -0.21066561252E+02  0.66577326245E+03  0.66943636742E+03  0.00000000000E+00 0. -1.
          1    1    1    2  503    0 -0.27710607692E+02  0.82191218509E+01 -0.41751233797E+03  0.41851162958E+03  0.00000000000E+00 0. -1.
<mgrwt>
<rscale>  0 0.44936271E+02</rscale>
<asrwt>0</asrwt>
<pdfrwt beam="1">  1        2 0.17835467E+00 0.69861606E+02</pdfrwt>
<pdfrwt beam="2">  1        2 0.16641733E+00 0.28903836E+02</pdfrwt>
<totfact> 0.95236662E+01</totfact>
</mgrwt>
</event>
<event>
13    1  0.1595792E-008  0.1077308E+03  0.7546771E-02  0.1391610E+00
          2   -1    0    0  502    0  0.00000000000E+00  0.00000000000E+00  0.19843714401E+04  0.19843714401E+04  0.00000000000E+00 0. -1.
          2   -1    0    0  503    0 -0.00000000000E+00 -0.00000000000E+00 -0.18591410738E+04  0.18591410738E+04  0.00000000000E+00 0. -1.
         24    2    1    2    0    0  0.98182004149E+01 -0.13109681296E+02 -0.35369854462E+03  0.36263233848E+03  0.78302564738E+02 0.  0.
         25    2    1    2    0    0 -0.11613668146E+03 -0.20593825371E+02 -0.57223518195E+03  0.59748738267E+03  0.12500493814E+03 0.  0.
         24    2    1    2    0    0 -0.91157248096E+02 -0.63476203480E+02  0.22062748946E+03  0.26343575284E+03  0.91558912629E+02 0.  0.
        -13    1    3    3    0    0 -0.10753572023E+02 -0.42657573811E+02 -0.19350497616E+03  0.19844264590E+03  0.00000000000E+00 0.  1.
         14    1    3    3    0    0  0.20571772438E+02  0.29547892516E+02 -0.16019356846E+03  0.16418969258E+03  0.00000000000E+00 0. -1.
        -13    1    5    5    0    0 -0.57124547628E+02 -0.50233253511E+01  0.38280178577E+02  0.68947950014E+02  0.00000000000E+00 0.  1.
         14    1    5    5    0    0 -0.34032700468E+02 -0.58452878128E+02  0.18234731088E+03  0.19448780283E+03  0.00000000000E+00 0. -1.
          5    1    4    4  501    0 -0.10443629310E+03 -0.64263921508E+02 -0.35691337573E+03  0.37742024151E+03  0.47000000000E+01 0. -1.
         -5    1    4    4    0  501 -0.11700388361E+02  0.43670096138E+02 -0.21532180622E+03  0.22006714116E+03  0.47000000000E+01 0. -1.
          1    1    1    2  502    0  0.16236056615E+03  0.96768751071E+02  0.17197223661E+04  0.17300780795E+04  0.00000000000E+00 0. -1.
          1    1    1    2  503    0  0.35115162993E+02  0.41095907505E+00 -0.88918576273E+03  0.88987896043E+03  0.00000000000E+00 0. -1.
<mgrwt>
<rscale>  0 0.61508092E+02</rscale>
<asrwt>0</asrwt>
<pdfrwt beam="1">  1        2 0.29181933E+00 0.10773085E+03</pdfrwt>
<pdfrwt beam="2">  1        2 0.27340310E+00 0.35117568E+02</pdfrwt>
<totfact> 0.17179782E+01</totfact>
</mgrwt>
</event>
<event>
13    1  0.1595792E-008  0.1500668E+03  0.7546771E-02  0.1305227E+00
          2   -1    0    0  502    0  0.00000000000E+00  0.00000000000E+00  0.11231100256E+04  0.11231100256E+04  0.00000000000E+00 0. -1.
          2   -1    0    0  503    0 -0.00000000000E+00 -0.00000000000E+00 -0.11145549002E+04  0.11145549002E+04  0.00000000000E+00 0. -1.
         24    2    1    2    0    0 -0.33962344737E+02  0.57966040251E+01 -0.20210745209E+03  0.22013072645E+03  0.80144076870E+02 0.  0.
         25    2    1    2    0    0 -0.16110916987E+03  0.12628031675E+03  0.66845843016E+02  0.24899252845E+03  0.12500411785E+03 0.  0.
         24    2    1    2    0    0  0.15728570269E+03  0.45273444479E+02  0.25749016653E+03  0.31491058738E+03  0.77968039219E+02 0.  0.
        -11    1    3    3    0    0 -0.26728869888E+02 -0.35160429812E+02 -0.83817618619E+02  0.94742184379E+02  0.00000000000E+00 0.  1.
         12    1    3    3    0    0 -0.72334748491E+01  0.40957033837E+02 -0.11828983347E+03  0.12538854207E+03  0.00000000000E+00 0. -1.
        -13    1    5    5    0    0  0.15058798116E+03  0.56808510319E+02  0.25468860921E+03  0.30128098940E+03  0.00000000000E+00 0.  1.
         14    1    5    5    0    0  0.66977215332E+01 -0.11535065841E+02  0.28015573207E+01  0.13629597980E+02  0.00000000000E+00 0. -1.
          5    1    4    4  501    0 -0.11974077070E+03  0.23758637199E+02  0.64872881554E+02  0.13832174728E+03  0.47000000000E+01 0.  1.
         -5    1    4    4    0  501 -0.41368399167E+02  0.10252167955E+03  0.19729614624E+01  0.11067078116E+03  0.47000000000E+01 0.  1.
          1    1    1    2  502    0 -0.64312864124E+01 -0.14846802296E+03  0.66082782469E+03  0.67733118131E+03  0.00000000000E+00 0. -1.
          1    1    1    2  503    0  0.44217098330E+02 -0.28882342291E+02 -0.77450125675E+03  0.77629990222E+03  0.00000000000E+00 0. -1.
<mgrwt>
<rscale>  0 0.89026193E+02</rscale>
<asrwt>0</asrwt>
<pdfrwt beam="1">  1        2 0.16516324E+00 0.15006685E+03</pdfrwt>
<pdfrwt beam="2">  1        2 0.16390513E+00 0.52814217E+02</pdfrwt>
<totfact> 0.10021992E+02</totfact>
</mgrwt>
</event>
<event>
13    1  0.1595792E-008  0.8576842E+02  0.7546771E-02  0.1363296E+00
          2   -1    0    0  503    0  0.00000000000E+00  0.00000000000E+00  0.41656100414E+04  0.41656100414E+04  0.00000000000E+00 0. -1.
          2   -1    0    0  502    0 -0.00000000000E+00 -0.00000000000E+00 -0.21131892278E+04  0.21131892278E+04  0.00000000000E+00 0. -1.
         24    2    1    2    0    0  0.29132155695E+03  0.39656362159E+03  0.34023046496E+03  0.60541684101E+03  0.92961425215E+02 0.  0.
         25    2    1    2    0    0 -0.46432569571E+03 -0.66350492977E+02  0.44442060235E+03  0.65811718480E+03  0.12493125116E+03 0.  0.
         24    2    1    2    0    0  0.24054580460E+03 -0.29537035462E+03  0.99098801636E+03  0.10647741805E+04  0.81122601300E+02 0.  0.
        -11    1    3    3    0    0  0.13542957205E+03  0.24241988187E+03  0.15258205400E+03  0.31684357547E+03  0.00000000000E+00 0.  1.
         12    1    3    3    0    0  0.15589198490E+03  0.15414373973E+03  0.18764841096E+03  0.28857326555E+03  0.00000000000E+00 0. -1.
        -13    1    5    5    0    0  0.76999208245E+02 -0.10354255578E+03  0.44636034340E+03  0.46463694976E+03  0.00000000000E+00 0.  1.
         14    1    5    5    0    0  0.16354659636E+03 -0.19182779885E+03  0.54462767296E+03  0.60013723076E+03  0.00000000000E+00 0. -1.
          5    1    4    4  501    0 -0.10669828930E+03 -0.89028818403E+01  0.18053107765E+03  0.20994605555E+03  0.47000000000E+01 0.  1.
         -5    1    4    4    0  501 -0.35762740642E+03 -0.57447611137E+02  0.26388952470E+03  0.44817112925E+03  0.47000000000E+01 0.  1.
          1    1    1    2  502    0 -0.33621265729E+02 -0.78918389987E+02 -0.18354869163E+04  0.18374903324E+04  0.00000000000E+00 0. -1.
          1    1    1    2  503    0 -0.33920400110E+02  0.44075615995E+02  0.21122686462E+04  0.21130007305E+04  0.00000000000E+00 0. -1.
<mgrwt>
<rscale>  0 0.69066519E+02</rscale>
<asrwt>0</asrwt>
<pdfrwt beam="1">  1        2 0.61258971E+00 0.55617025E+02</pdfrwt>
<pdfrwt beam="2">  1        2 0.31076312E+00 0.85768415E+02</pdfrwt>
<totfact> 0.83020216E-01</totfact>
</mgrwt>
</event>
<event>
13    1  0.1595792E-008  0.2112190E+03  0.7546771E-02  0.1235672E+00
          2   -1    0    0  502    0  0.00000000000E+00  0.00000000000E+00  0.86462592976E+03  0.86462592976E+03  0.00000000000E+00 0. -1.
          2   -1    0    0  503    0 -0.00000000000E+00 -0.00000000000E+00 -0.13602612888E+04  0.13602612888E+04  0.00000000000E+00 0. -1.
         24    2    1    2    0    0 -0.38547608802E+01 -0.19117404307E+03 -0.26733975812E+03  0.33840049322E+03  0.80510704990E+02 0.  0.
         25    2    1    2    0    0  0.42581625053E+02  0.10307340582E+02 -0.16565764370E+03  0.21209367806E+03  0.12498734853E+03 0.  0.
         24    2    1    2    0    0  0.10484108300E+02 -0.42142588333E+02  0.99743058001E+02  0.13158934851E+03  0.74034888694E+02 0.  0.
        -11    1    3    3    0    0 -0.32301797601E+02 -0.50013114042E+02 -0.11024199754E+03  0.12529172250E+03  0.00000000000E+00 0.  1.
         12    1    3    3    0    0  0.28447036721E+02 -0.14116092902E+03 -0.15709776058E+03  0.21310877072E+03  0.00000000000E+00 0. -1.
        -13    1    5    5    0    0 -0.26245354994E+02  0.30807022813E+01  0.41574736423E+02  0.49262238012E+02  0.00000000000E+00 0.  1.
         14    1    5    5    0    0  0.36729463295E+02 -0.45223290614E+02  0.58168321577E+02  0.82327110499E+02  0.00000000000E+00 0. -1.
          5    1    4    4  501    0  0.40873701521E+01 -0.51222722340E+02 -0.10649833370E+03  0.11834043671E+03  0.47000000000E+01 0. -1.
         -5    1    4    4    0  501  0.38494254901E+02  0.61530062922E+02 -0.59159309997E+02  0.93753241346E+02  0.47000000000E+01 0. -1.
          1    1    1    2  502    0  0.68684342111E+02  0.26224991614E+02  0.67274189385E+03  0.67674732713E+03  0.00000000000E+00 0. -1.
          1    1    1    2  503    0 -0.11789531458E+03  0.19678429920E+03 -0.83512290910E+03  0.86605637167E+03  0.00000000000E+00 0. -1.
<mgrwt>
<rscale>  0 0.12461525E+03</rscale>
<asrwt>0</asrwt>
<pdfrwt beam="1">  1        2 0.12715087E+00 0.73520671E+02</pdfrwt>
<pdfrwt beam="2">  1        2 0.20003842E+00 0.21121899E+03</pdfrwt>
<totfact> 0.99843068E+01</totfact>
</mgrwt>
</event>
<event>
13    1  0.1595792E-008  0.6362813E+02  0.7546771E-02  0.1515485E+00
          2   -1    0    0  503    0  0.00000000000E+00  0.00000000000E+00  0.24534656476E+04  0.24534656476E+04  0.00000000000E+00 0. -1.
          2   -1    0    0  502    0 -0.00000000000E+00 -0.00000000000E+00 -0.22753790932E+04  0.22753790932E+04  0.00000000000E+00 0. -1.
         24    2    1    2    0    0  0.97694334238E+01  0.20542738462E+03 -0.13468497168E+04  0.13666484623E+04  0.10690186002E+03 0.  0.
         25    2    1    2    0    0  0.67995175186E+02 -0.18850369364E+03  0.30403724779E+03  0.38502169347E+03  0.12508425173E+03 0.  0.
         24    2    1    2    0    0 -0.20912404872E+02 -0.76634160820E+02  0.36875088529E+03  0.38506195339E+03  0.77365168255E+02 0.  0.
        -11    1    3    3    0    0 -0.20323094137E+02  0.18224175302E+03 -0.91901770159E+03  0.93713319252E+03  0.00000000000E+00 0.  1.
         12    1    3    3    0    0  0.30092527561E+02  0.23185631596E+02 -0.42783201519E+03  0.42951526975E+03  0.00000000000E+00 0. -1.
        -13    1    5    5    0    0 -0.65884013842E+01  0.15915013778E+02  0.59096604831E+02  0.61555693472E+02  0.00000000000E+00 0.  1.
         14    1    5    5    0    0 -0.14324003488E+02 -0.92549174598E+02  0.30965428046E+03  0.32350625991E+03  0.00000000000E+00 0. -1.
          5    1    4    4  501    0  0.37525823934E+02 -0.16779550165E+03  0.15537579787E+03  0.23179138552E+03  0.47000000000E+01 0.  1.
         -5    1    4    4    0  501  0.30469351252E+02 -0.20708191986E+02  0.14866144992E+03  0.15323030795E+03  0.47000000000E+01 0.  1.
          1    1    1    2  502    0 -0.23254744617E+02  0.56841862382E+01 -0.86922980358E+03  0.86955939680E+03  0.00000000000E+00 0. -1.
          1    1    1    2  503    0 -0.33597459121E+02  0.54026283601E+02  0.17213779418E+04  0.17225532349E+04  0.00000000000E+00 0. -1.
<mgrwt>
<rscale>  0 0.39028411E+02</rscale>
<asrwt>0</asrwt>
<pdfrwt beam="1">  1        2 0.36080377E+00 0.63628127E+02</pdfrwt>
<pdfrwt beam="2">  1        2 0.33461457E+00 0.23939363E+02</pdfrwt>
<totfact> 0.73880809E+00</totfact>
</mgrwt>
</event>
<event>
13    1  0.1595792E-008  0.4624735E+02  0.7546771E-02  0.1641446E+00
         -1   -1    0    0    0  501 -0.00000000000E+00  0.00000000000E+00  0.50386912581E+03  0.50386912581E+03  0.00000000000E+00 0.  1.
          2   -1    0    0  503    0  0.00000000000E+00 -0.00000000000E+00 -0.59119236485E+03  0.59119236485E+03  0.00000000000E+00 0. -1.
         24    2    1    2    0    0 -0.40056470309E+01 -0.43863116443E+02  0.14656269788E+03  0.17290478385E+03  0.80470004834E+02 0.  0.
         25    2    1    2    0    0 -0.14055688294E+02 -0.78859260525E+01  0.94337474583E+02  0.15743451960E+03  0.12500527448E+03 0.  0.
         24    2    1    2    0    0  0.25453604365E+02  0.21278977710E+02 -0.25053259587E+02  0.90727118744E+02  0.80641573596E+02 0.  0.
        -11    1    3    3    0    0  0.14872648242E+02 -0.62672952910E+02  0.93703477608E+02  0.11370767963E+03  0.00000000000E+00 0.  1.
         12    1    3    3    0    0 -0.18878295273E+02  0.18809836467E+02  0.52859220268E+02  0.59197104217E+02  0.00000000000E+00 0. -1.
        -11    1    5    5    0    0  0.13783094466E+02  0.52284190380E+02 -0.15611489565E+02  0.56279026850E+02  0.00000000000E+00 0.  1.
         12    1    5    5    0    0  0.11670509898E+02 -0.31005212669E+02 -0.94417700217E+01  0.34448091894E+02  0.00000000000E+00 0. -1.
          5    1    4    4  502    0  0.29476674369E+02  0.43444676923E+02  0.18340791665E+02  0.55810294065E+02  0.47000000000E+01 0. -1.
         -5    1    4    4    0  502 -0.43532362662E+02 -0.51330602975E+02  0.75996682918E+02  0.10162422553E+03  0.47000000000E+01 0. -1.
          1    1    1    2  503    0 -0.84382873982E+01  0.45523372456E+02 -0.48717623805E+03  0.48937129978E+03  0.00000000000E+00 0. -1.
         -2    1    1    2    0  501  0.10460183581E+01 -0.15053307671E+02  0.18400608614E+03  0.18462376868E+03  0.00000000000E+00 0.  1.
<mgrwt>
<rscale>  0 0.26416931E+02</rscale>
<asrwt>0</asrwt>
<pdfrwt beam="2">  1        2 0.86940054E-01 0.46247345E+02</pdfrwt>
<pdfrwt beam="1">  1       -1 0.74098401E-01 0.15089607E+02</pdfrwt>
<totfact> 0.13182339E+02</totfact>
</mgrwt>
</event>
<event>
13    1  0.1595792E-008  0.6307314E+02  0.7546771E-02  0.1459411E+00
          2   -1    0    0  503    0  0.00000000000E+00  0.00000000000E+00  0.32012236678E+04  0.32012236678E+04  0.00000000000E+00 0. -1.
         -1   -1    0    0    0  501 -0.00000000000E+00 -0.00000000000E+00 -0.18797797358E+04  0.18797797358E+04  0.00000000000E+00 0.  1.
         24    2    1    2    0    0 -0.16526027324E+03  0.23564885326E+03 -0.17884813201E+03  0.35123142247E+03  0.92387866354E+02 0.  0.
         25    2    1    2    0    0 -0.50650640841E+03  0.63425595228E+03  0.11369848254E+03  0.82908534437E+03  0.12500323413E+03 0.  0.
         24    2    1    2    0    0  0.67873967933E+03 -0.80737178628E+03  0.14342029113E+04  0.17821865766E+04  0.81940523894E+02 0.  0.
        -11    1    3    3    0    0 -0.16920183045E+03  0.22016476998E+03 -0.14376720654E+03  0.31268321836E+03  0.00000000000E+00 0.  1.
         12    1    3    3    0    0  0.39415572050E+01  0.15484083277E+02 -0.35080925463E+02  0.38548204102E+02  0.00000000000E+00 0. -1.
        -13    1    5    5    0    0  0.12002470866E+03 -0.12913237150E+03  0.29172212539E+03  0.34085612581E+03  0.00000000000E+00 0.  1.
         14    1    5    5    0    0  0.55871497067E+03 -0.67823941478E+03  0.11424807860E+04  0.14413304508E+04  0.00000000000E+00 0. -1.
          5    1    4    4  502    0 -0.23314500517E+03  0.39096841504E+03  0.67433589485E+02  0.46019808124E+03  0.47000000000E+01 0.  1.
         -5    1    4    4    0  502 -0.27336140325E+03  0.24328753725E+03  0.46264893052E+02  0.36888726312E+03  0.47000000000E+01 0.  1.
          1    1    1    2  503    0 -0.35216278413E+02 -0.61318875847E+01  0.10342179039E+04  0.10348354744E+04  0.00000000000E+00 0. -1.
         -2    1    1    2    0  501  0.28243280742E+02 -0.56401131675E+02 -0.10818272338E+04  0.10836645857E+04  0.00000000000E+00 0.  1.
<mgrwt>
<rscale>  0 0.47482850E+02</rscale>
<asrwt>0</asrwt>
<pdfrwt beam="1">  1        2 0.47076819E+00 0.35746137E+02</pdfrwt>
<pdfrwt beam="2">  1       -1 0.27643820E+00 0.63073137E+02</pdfrwt>
<totfact> 0.19983520E-01</totfact>
</mgrwt>
</event>
<event>
13    1  0.1595792E-008  0.2001379E+03  0.7546771E-02  0.1280169E+00
          2   -1    0    0  502    0  0.00000000000E+00  0.00000000000E+00  0.20056255261E+04  0.20056255261E+04  0.00000000000E+00 0. -1.
          2   -1    0    0  503    0 -0.00000000000E+00 -0.00000000000E+00 -0.17751788603E+04  0.17751788603E+04  0.00000000000E+00 0. -1.
         24    2    1    2    0    0 -0.14317212260E+02 -0.11730529131E+03 -0.80415152710E+02  0.16485483571E+03  0.82127986305E+02 0.  0.
         25    2    1    2    0    0  0.18725788735E+03  0.27025372437E+03 -0.28779646447E+02  0.35290369318E+03  0.12494061270E+03 0.  0.
         24    2    1    2    0    0 -0.66991852146E+02 -0.27697148775E+02  0.27567293898E+02  0.11134288640E+03  0.79888937622E+02 0.  0.
        -11    1    3    3    0    0  0.23064403995E+02 -0.49375666091E+02 -0.19328578171E+01  0.54531266929E+02  0.00000000000E+00 0.  1.
         12    1    3    3    0    0 -0.37381616255E+02 -0.67929625217E+02 -0.78482294893E+02  0.11032356878E+03  0.00000000000E+00 0. -1.
        -11    1    5    5    0    0  0.12375589515E+01  0.22381891178E+02  0.28177954806E+00  0.22417850133E+02  0.00000000000E+00 0.  1.
         12    1    5    5    0    0 -0.68229411097E+02 -0.50079039954E+02  0.27285514350E+02  0.88925036265E+02  0.00000000000E+00 0. -1.
          5    1    4    4  501    0  0.34502340723E+02  0.79256101968E+02 -0.61387928539E+02  0.10612496872E+03  0.47000000000E+01 0. -1.
         -5    1    4    4    0  501  0.15275554663E+03  0.19099762240E+03  0.32608282092E+02  0.24677872447E+03  0.47000000000E+01 0. -1.
          1    1    1    2  502    0  0.49549691445E+02 -0.68846720640E+01  0.17247996474E+04  0.17255249619E+04  0.00000000000E+00 0. -1.
          1    1    1    2  503    0 -0.15549851439E+03 -0.11836661222E+03 -0.14127254762E+04  0.14261780092E+04  0.00000000000E+00 0. -1.
<mgrwt>
<rscale>  0 0.10006017E+03</rscale>
<asrwt>0</asrwt>
<pdfrwt beam="1">  1        2 0.29494493E+00 0.50025700E+02</pdfrwt>
<pdfrwt beam="2">  1        2 0.26105572E+00 0.20013788E+03</pdfrwt>
<totfact> 0.16899793E+01</totfact>
</mgrwt>
</event>
<event>
13    1  0.1595792E-008  0.1659699E+03  0.7546771E-02  0.1234993E+00
          2   -1    0    0  503    0  0.00000000000E+00  0.00000000000E+00  0.69472673969E+03  0.69472673969E+03  0.00000000000E+00 0. -1.
          2   -1    0    0  502    0 -0.00000000000E+00 -0.00000000000E+00 -0.14382356845E+04  0.14382356845E+04  0.00000000000E+00 0. -1.
         24    2    1    2    0    0 -0.86106786821E+02  0.90243857646E+01 -0.13528917971E+03  0.17917834564E+03  0.79409691618E+02 0.  0.
         25    2    1    2    0    0  0.28026892305E+03  0.11783533562E+03 -0.15830619122E+03  0.36485889746E+03  0.12500131731E+03 0.  0.
         24    2    1    2    0    0 -0.69467156958E+02 -0.37872326492E+02  0.29144488901E+03  0.31231111410E+03  0.79612245572E+02 0.  0.
        -13    1    5    5    0    0  0.88669515891E+01 -0.24240018052E+02  0.12770030895E+03  0.13028265507E+03  0.00000000000E+00 0.  1.
         14    1    5    5    0    0 -0.78334108547E+02 -0.13632308440E+02  0.16374458006E+03  0.18202845903E+03  0.00000000000E+00 0. -1.
        -13    1    3    3    0    0 -0.15860353020E+02 -0.24334588238E+02 -0.76085852741E+02  0.81441880934E+02  0.00000000000E+00 0.  1.
         14    1    3    3    0    0 -0.70246433801E+02  0.33358974003E+02 -0.59203326970E+02  0.97736464702E+02  0.00000000000E+00 0. -1.
          5    1    4    4  501    0  0.14637242024E+03  0.12747750508E+03 -0.10044102986E+03  0.21859984032E+03  0.47000000000E+01 0. -1.
         -5    1    4    4    0  501  0.13389650280E+03 -0.96421694639E+01 -0.57865161361E+02  0.14625905714E+03  0.47000000000E+01 0. -1.
          1    1    1    2  502    0 -0.76643532178E+02 -0.17003013319E+03 -0.99172321375E+03  0.10091082251E+04  0.00000000000E+00 0. -1.
          1    1    1    2  503    0 -0.48051447089E+02  0.81042738303E+02  0.25036475085E+03  0.26750584193E+03  0.00000000000E+00 0. -1.
<mgrwt>
<rscale>  0 0.12504881E+03</rscale>
<asrwt>0</asrwt>
<pdfrwt beam="1">  1        2 0.10216570E+00 0.94217127E+02</pdfrwt>
<pdfrwt beam="2">  1        2 0.21150525E+00 0.16596988E+03</pdfrwt>
<totfact> 0.11883478E+02</totfact>
</mgrwt>
</event>
<event>
13    1  0.1595792E-008  0.3658364E+02  0.7546771E-02  0.1573159E+00
          2   -1    0    0  503    0  0.00000000000E+00  0.00000000000E+00  0.29965444291E+04  0.29965444291E+04  0.00000000000E+00 0. -1.
         -3   -1    0    0    0  501 -0.00000000000E+00 -0.00000000000E+00 -0.31814458966E+04  0.31814458966E+04  0.00000000000E+00 0.  1.
         24    2    1    2    0    0 -0.10805514172E+03  0.62106243458E+03 -0.16738643941E+04  0.17902768741E+04  0.76647338313E+02 0.  0.
         25    2    1    2    0    0  0.64949446499E+03 -0.11290419804E+04 -0.26711893007E+03  0.13354986807E+04  0.12500139895E+03 0.  0.
         24    2    1    2    0    0 -0.49390344618E+03  0.46849513952E+03  0.10252122150E+04  0.12349815001E+04  0.10339685665E+03 0.  0.
        -11    1    3    3    0    0 -0.28556472251E+02  0.27410017468E+03 -0.63852720894E+03  0.69545911053E+03  0.00000000000E+00 0.  1.
         12    1    3    3    0    0 -0.79498669468E+02  0.34696225991E+03 -0.10353371852E+04  0.10948177635E+04  0.00000000000E+00 0. -1.
        -13    1    5    5    0    0 -0.13220638222E+03  0.69536670093E+02  0.24575343895E+03  0.28759107904E+03  0.00000000000E+00 0.  1.
         14    1    5    5    0    0 -0.36169706396E+03  0.39895846942E+03  0.77945877603E+03  0.94739042107E+03  0.00000000000E+00 0. -1.
          5    1    4    4  502    0  0.13002458415E+03 -0.18329811192E+03 -0.89523577446E+02  0.24195278720E+03  0.47000000000E+01 0. -1.
         -5    1    4    4    0  502  0.51946988084E+03 -0.94574386849E+03 -0.17759535262E+03  0.10935458935E+04  0.47000000000E+01 0. -1.
          1    1    1    2  503    0 -0.33615641218E+02  0.14428657900E+02  0.12734104828E+04  0.12739358129E+04  0.00000000000E+00 0. -1.
         -4    1    1    2    0  501 -0.13920235877E+02  0.25055748405E+02 -0.54254084111E+03  0.54329745791E+03  0.00000000000E+00 0.  1.
<mgrwt>
<rscale>  0 0.32382005E+02</rscale>
<asrwt>0</asrwt>
<pdfrwt beam="1">  1        2 0.44066830E+00 0.36583639E+02</pdfrwt>
<pdfrwt beam="2">  1       -3 0.46785969E+00 0.28662929E+02</pdfrwt>
<totfact> 0.16687298E-02</totfact>
</mgrwt>
</event>
<event>
13    1  0.1595792E-008  0.6840945E+02  0.7546771E-02  0.1425868E+00
          2   -1    0    0  502    0  0.00000000000E+00  0.00000000000E+00  0.16162847018E+04  0.16162847018E+04  0.00000000000E+00 0. -1.
          2   -1    0    0  503    0 -0.00000000000E+00 -0.00000000000E+00 -0.33832651961E+04  0.33832651961E+04  0.00000000000E+00 0. -1.
         24    2    1    2    0    0 -0.26149820324E+02  0.62966381641E+02 -0.32605775296E+03  0.34268950474E+03  0.80460301215E+02 0.  0.
         25    2    1    2    0    0  0.26872398258E+03  0.99400641627E+02 -0.12991731581E+04  0.13362516678E+04  0.12499823393E+03 0.  0.
         24    2    1    2    0    0 -0.20692224113E+03 -0.94928314723E+02 -0.15883673740E+03  0.28936294615E+03  0.81692145560E+02 0.  0.
        -13    1    5    5    0    0 -0.14031977373E+03 -0.10029203312E+03 -0.94794393817E+02  0.19680982675E+03  0.00000000000E+00 0.  1.
         14    1    5    5    0    0 -0.66602467398E+02  0.53637183956E+01 -0.64042343585E+02  0.92553119399E+02  0.00000000000E+00 0. -1.
        -13    1    3    3    0    0  0.20101009150E+02  0.54931723022E+02 -0.18462256727E+03  0.19366733619E+03  0.00000000000E+00 0.  1.
         14    1    3    3    0    0 -0.46250829474E+02  0.80346586188E+01 -0.14143518569E+03  0.14902216854E+03  0.00000000000E+00 0. -1.
          5    1    4    4  501    0  0.30560670279E+01 -0.10548545674E+01  0.65835037234E+00  0.57424462601E+01  0.47000000000E+01 0.  1.
         -5    1    4    4    0  501  0.26566791555E+03  0.10045549619E+03 -0.12998315085E+04  0.13305092215E+04  0.47000000000E+01 0.  1.
          1    1    1    2  502    0 -0.42302423519E+02  0.68609869695E+00  0.15230953661E+04  0.15236828607E+04  0.00000000000E+00 0. -1.
          1    1    1    2  503    0  0.66505023873E+01 -0.68124807242E+02 -0.15060082120E+04  0.15075629184E+04  0.00000000000E+00 0. -1.
<mgrwt>
<rscale>  0 0.53798385E+02</rscale>
<asrwt>0</asrwt>
<pdfrwt beam="1">  1        2 0.23768893E+00 0.42307987E+02</pdfrwt>
<pdfrwt beam="2">  1        2 0.49753900E+00 0.68409453E+02</pdfrwt>
<totfact> 0.44833407E+00</totfact>
</mgrwt>
</event>
<event>
13    1  0.1595792E-008  0.7200120E+02  0.7546771E-02  0.1409511E+00
          2   -1    0    0  503    0  0.00000000000E+00  0.00000000000E+00  0.29125057576E+04  0.29125057576E+04  0.00000000000E+00 0. -1.
          2   -1    0    0  502    0 -0.00000000000E+00 -0.00000000000E+00 -0.95330461588E+03  0.95330461588E+03  0.00000000000E+00 0. -1.
         24    2    1    2    0    0 -0.43562028948E+03  0.17109289039E+02 -0.30126807649E+03  0.53613352838E+03  0.81356880292E+02 0.  0.
         25    2    1    2    0    0  0.42432172958E+03 -0.75489950518E+02  0.70852415244E+03  0.83867745842E+03  0.12500296730E+03 0.  0.
         24    2    1    2    0    0  0.94883155847E+02  0.13985594944E+03  0.14080443910E+03  0.23435360816E+03  0.80828359678E+02 0.  0.
        -11    1    3    3    0    0 -0.19930755506E+02 -0.28881713631E+01  0.33179338779E+01  0.20410419743E+02  0.00000000000E+00 0.  1.
         12    1    3    3    0    0 -0.41568953397E+03  0.19997460402E+02 -0.30458601036E+03  0.51572310864E+03  0.00000000000E+00 0. -1.
        -13    1    5    5    0    0  0.13340243867E+02  0.80456820770E+02  0.89810097671E+02  0.12131412019E+03  0.00000000000E+00 0.  1.
         14    1    5    5    0    0  0.81542911980E+02  0.59399128674E+02  0.50994341427E+02  0.11303948796E+03  0.00000000000E+00 0. -1.
          5    1    4    4  501    0  0.36659158863E+02 -0.42364163309E+02  0.12813803273E+03  0.13992877364E+03  0.47000000000E+01 0.  1.
         -5    1    4    4    0  501  0.38766257072E+03 -0.33125787209E+02  0.58038611972E+03  0.69874868477E+03  0.47000000000E+01 0. -1.
          1    1    1    2  502    0 -0.46732142362E+02 -0.54609850191E+02 -0.41941146409E+03  0.42552568087E+03  0.00000000000E+00 0. -1.
          1    1    1    2  503    0 -0.36852453593E+02 -0.26865437773E+02  0.18305520908E+04  0.18311200977E+04  0.00000000000E+00 0. -1.
<mgrwt>
<rscale>  0 0.57303104E+02</rscale>
<asrwt>0</asrwt>
<pdfrwt beam="1">  1        2 0.42830967E+00 0.45605428E+02</pdfrwt>
<pdfrwt beam="2">  1        2 0.14019186E+00 0.72001203E+02</pdfrwt>
<totfact> 0.18013656E+01</totfact>
</mgrwt>
</event>
<event>
13    1  0.1595792E-008  0.1962443E+03  0.7546771E-02  0.1270044E+00
          2   -1    0    0  503    0  0.00000000000E+00  0.00000000000E+00  0.18889307239E+04  0.18889307239E+04  0.00000000000E+00 0. -1.
          2   -1    0    0  502    0 -0.00000000000E+00 -0.00000000000E+00 -0.32630084685E+03  0.32630084685E+03  0.00000000000E+00 0. -1.
         24    2    1    2    0    0 -0.13317314242E+03 -0.10158582831E+03  0.93987191108E+02  0.20618732797E+03  0.74999038295E+02 0.  0.
         25    2    1    2    0    0  0.16790094197E+03 -0.43159376314E+02  0.15769317665E+03  0.26560382944E+03  0.12499919269E+03 0.  0.
         24    2    1    2    0    0 -0.68230402008E+02 -0.18683328986E+02  0.69435978355E+03  0.70259389827E+03  0.80611552116E+02 0.  0.
        -11    1    5    5    0    0 -0.58702381830E+02  0.22713130220E+02  0.47569998694E+03  0.47984615607E+03  0.00000000000E+00 0.  1.
         12    1    5    5    0    0 -0.95280201785E+01 -0.41396459206E+02  0.21865979661E+03  0.22274774220E+03  0.00000000000E+00 0. -1.
        -11    1    3    3    0    0 -0.98165647901E+01 -0.97792805731E+01  0.41426155736E+02  0.43682097613E+02  0.00000000000E+00 0.  1.
         12    1    3    3    0    0 -0.12335657763E+03 -0.91806547738E+02  0.52561035372E+02  0.16250523036E+03  0.00000000000E+00 0. -1.
          5    1    4    4  501    0  0.11101385218E+03 -0.76101382457E+02  0.14607261914E+03  0.19868265110E+03  0.47000000000E+01 0. -1.
         -5    1    4    4    0  501  0.56887089790E+02  0.32942006143E+02  0.11620557516E+02  0.66921178340E+02  0.47000000000E+01 0. -1.
          1    1    1    2  502    0  0.32697959659E+02  0.21964360250E+03 -0.15270389150E+03  0.26950129344E+03  0.00000000000E+00 0. -1.
          1    1    1    2  503    0  0.80464280568E+00 -0.56215068892E+02  0.76929361721E+03  0.77134522161E+03  0.00000000000E+00 0. -1.
<mgrwt>
<rscale>  0 0.10503817E+03</rscale>
<asrwt>0</asrwt>
<pdfrwt beam="1">  1        2 0.27778392E+00 0.56220827E+02</pdfrwt>
<pdfrwt beam="2">  1        2 0.47985420E-01 0.19624430E+03</pdfrwt>
<totfact> 0.17833397E+02</totfact>
</mgrwt>
</event>
<event>
13    1  0.1595792E-008  0.5031779E+02  0.7546771E-02  0.1546927E+00
          2   -1    0    0  503    0  0.00000000000E+00  0.00000000000E+00  0.53318359911E+03  0.53318359911E+03  0.00000000000E+00 0. -1.
          2   -1    0    0  502    0 -0.00000000000E+00 -0.00000000000E+00 -0.31024430293E+04  0.31024430293E+04  0.00000000000E+00 0. -1.
         24    2    1    2    0    0  0.99057117803E+01 -0.17203084122E+02 -0.21350171554E+03  0.23281843293E+03  0.90704856235E+02 0.  0.
         25    2    1    2    0    0  0.34297318114E+01 -0.33271190376E+02 -0.10936427241E+01  0.12940720144E+03  0.12500517013E+03 0.  0.
         24    2    1    2    0    0 -0.26164720029E+02 -0.19400806858E+02  0.19014620966E+03  0.20865174140E+03  0.79492038981E+02 0.  0.
        -13    1    5    5    0    0  0.64650657718E+01  0.12087208459E+01 -0.59044199051E+01  0.88385663957E+01  0.00000000000E+00 0.  1.
         14    1    5    5    0    0 -0.32629785801E+02 -0.20609527704E+02  0.19605062956E+03  0.19981317501E+03  0.00000000000E+00 0. -1.
        -13    1    3    3    0    0 -0.38456474611E+02 -0.21246076685E+02 -0.11207534920E+03  0.12037931762E+03  0.00000000000E+00 0.  1.
         14    1    3    3    0    0  0.48362186391E+02  0.40429925630E+01 -0.10142636634E+03  0.11243911531E+03  0.00000000000E+00 0. -1.
          5    1    4    4  501    0  0.56719452792E+02 -0.20502057915E+02  0.28588963785E+02  0.66909263589E+02  0.47000000000E+01 0.  1.
         -5    1    4    4    0  501 -0.53289720981E+02 -0.12769132461E+02 -0.29682606509E+02  0.62497937847E+02  0.47000000000E+01 0.  1.
          1    1    1    2  502    0  0.14686055903E+02  0.19746591213E+02 -0.28023054216E+04  0.28024134749E+04  0.00000000000E+00 0. -1.
          1    1    1    2  503    0 -0.18567794661E+01  0.50128490143E+02  0.25749514004E+03  0.26233577777E+03  0.00000000000E+00 0. -1.
<mgrwt>
<rscale>  0 0.35189144E+02</rscale>
<asrwt>0</asrwt>
<pdfrwt beam="1">  1        2 0.78409352E-01 0.50317792E+02</pdfrwt>
<pdfrwt beam="2">  1        2 0.45624163E+00 0.24609106E+02</pdfrwt>
<totfact> 0.31697350E+01</totfact>
</mgrwt>
</event>
<event>
13    1  0.1595792E-008  0.1121813E+03  0.7546771E-02  0.1388506E+00
          2   -1    0    0  502    0  0.00000000000E+00  0.00000000000E+00  0.24045813756E+04  0.24045813756E+04  0.00000000000E+00 0. -1.
          2   -1    0    0  503    0 -0.00000000000E+00 -0.00000000000E+00 -0.34414659689E+03  0.34414659689E+03  0.00000000000E+00 0. -1.
         24    2    1    2    0    0 -0.97443577713E+02  0.39390516949E+02  0.48283223057E+02  0.14191632302E+03  0.82232046352E+02 0.  0.
         25    2    1    2    0    0  0.21179750018E+03 -0.96622739971E+02  0.14763359994E+04  0.14997945625E+04  0.12498644523E+03 0.  0.
         24    2    1    2    0    0 -0.52374588481E+02  0.68923462002E+01  0.43904439260E+03  0.44932198798E+03  0.79622033715E+02 0.  0.
        -13    1    5    5    0    0 -0.94930547733E+01  0.22561671389E+02  0.35020796508E+02  0.42727079152E+02  0.00000000000E+00 0.  1.
         14    1    5    5    0    0 -0.42881533708E+02 -0.15669325189E+02  0.40402359609E+03  0.40659490882E+03  0.00000000000E+00 0. -1.
        -13    1    3    3    0    0 -0.11092121883E+03  0.36577081912E+02  0.51704847838E+02  0.12772936623E+03  0.00000000000E+00 0.  1.
         14    1    3    3    0    0  0.13477641116E+02  0.28134350369E+01 -0.34216247809E+01  0.14186956788E+02  0.00000000000E+00 0. -1.
          5    1    4    4  501    0  0.96181011916E+02 -0.32985717311E+01  0.32746683122E+03  0.34134774524E+03  0.47000000000E+01 0.  1.
         -5    1    4    4    0  501  0.11561648827E+03 -0.93324168240E+02  0.11488691682E+04  0.11584468173E+04  0.47000000000E+01 0.  1.
          1    1    1    2  502    0  0.33589264829E+02 -0.82012669378E+01  0.36518765829E+03  0.36682083536E+03  0.00000000000E+00 0. -1.
          1    1    1    2  503    0 -0.95568598818E+02  0.58541143760E+02 -0.26841649471E+03  0.29087426360E+03  0.00000000000E+00 0. -1.
<mgrwt>
<rscale>  0 0.62279859E+02</rscale>
<asrwt>0</asrwt>
<pdfrwt beam="1">  1        2 0.35361490E+00 0.34575996E+02</pdfrwt>
<pdfrwt beam="2">  1        2 0.50609795E-01 0.11218132E+03</pdfrwt>
<totfact> 0.10288429E+02</totfact>
</mgrwt>
</event>
<event>
13    1  0.1595792E-008  0.8982656E+02  0.7546771E-02  0.1421019E+00
          2   -1    0    0  503    0  0.00000000000E+00  0.00000000000E+00  0.14085781099E+04  0.14085781099E+04  0.00000000000E+00 0. -1.
          2   -1    0    0  502    0 -0.00000000000E+00 -0.00000000000E+00 -0.95414229961E+03  0.95414229961E+03  0.00000000000E+00 0. -1.
         24    2    1    2    0    0  0.84710534451E+02  0.48468569705E+01 -0.34304159774E+03  0.36240309493E+03  0.80368518493E+02 0.  0.
         25    2    1    2    0    0  0.52781771733E+02  0.15449092315E+02 -0.92418223834E+02  0.16489538446E+03  0.12499907935E+03 0.  0.
         24    2    1    2    0    0 -0.80066961295E+02  0.22567667796E+02  0.28362000317E+03  0.30622533491E+03  0.80085152338E+02 0.  0.
        -11    1    3    3    0    0  0.20346137643E+02  0.30173712070E+02 -0.20271421281E+03  0.20595502007E+03  0.00000000000E+00 0.  1.
         12    1    3    3    0    0  0.64364396808E+02 -0.25326855100E+02 -0.14032738493E+03  0.15644807486E+03  0.00000000000E+00 0. -1.
        -13    1    5    5    0    0 -0.43327350524E+02 -0.28778460822E+02  0.11683542973E+03  0.12789048734E+03  0.00000000000E+00 0.  1.
         14    1    5    5    0    0 -0.36739610771E+02  0.51346128618E+02  0.16678457343E+03  0.17833484757E+03  0.00000000000E+00 0. -1.
          5    1    4    4  501    0 -0.52064350761E+01  0.33576643277E+02 -0.97877724504E+02  0.10371420777E+03  0.47000000000E+01 0.  1.
         -5    1    4    4    0  501  0.57988206810E+02 -0.18127550961E+02  0.54595006700E+01  0.61181176684E+02  0.47000000000E+01 0.  1.
          1    1    1    2  502    0  0.28723681264E+02 -0.17120330916E+02 -0.45895826111E+03  0.46017479400E+03  0.00000000000E+00 0. -1.
          1    1    1    2  503    0 -0.86149026154E+02 -0.25743286166E+02  0.10652338898E+04  0.10690218012E+04  0.00000000000E+00 0. -1.
<mgrwt>
<rscale>  0 0.54805980E+02</rscale>
<asrwt>0</asrwt>
<pdfrwt beam="1">  1        2 0.20714384E+00 0.89826562E+02</pdfrwt>
<pdfrwt beam="2">  1        2 0.14031504E+00 0.33438834E+02</pdfrwt>
<totfact> 0.91726574E+01</totfact>
</mgrwt>
</event>
<event>
13    1  0.1595792E-008  0.1989377E+03  0.7546771E-02  0.1333164E+00
          2   -1    0    0  502    0  0.00000000000E+00  0.00000000000E+00  0.12621757909E+04  0.12621757909E+04  0.00000000000E+00 0. -1.
          2   -1    0    0  503    0 -0.00000000000E+00 -0.00000000000E+00 -0.41537200970E+03  0.41537200970E+03  0.00000000000E+00 0. -1.
         24    2    1    2    0    0 -0.11540516559E+03 -0.15719993997E+01  0.14377525524E+03  0.20102489034E+03  0.80117782611E+02 0.  0.
         25    2    1    2    0    0  0.19092442541E+03  0.19540641321E+03  0.16849248356E+03  0.34445822615E+03  0.12500379994E+03 0.  0.
         24    2    1    2    0    0  0.64163496147E+02 -0.28606405357E+02  0.11914742558E+03  0.15883319394E+03  0.78080687820E+02 0.  0.
        -11    1    5    5    0    0  0.38409049771E+02 -0.43225073665E+02  0.30510655075E+02  0.65380135904E+02  0.00000000000E+00 0.  1.
         12    1    5    5    0    0  0.25754446375E+02  0.14618668308E+02  0.88636770507E+02  0.93453058040E+02  0.00000000000E+00 0. -1.
        -13    1    3    3    0    0 -0.43937780099E+02 -0.39506719915E+02  0.52396192607E+02  0.78972592956E+02  0.00000000000E+00 0.  1.
         14    1    3    3    0    0 -0.71467385487E+02  0.37934720515E+02  0.91379062637E+02  0.12205229739E+03  0.00000000000E+00 0. -1.
          5    1    4    4  501    0  0.15682181230E+03  0.21031991856E+03  0.14043027494E+03  0.29760762940E+03  0.47000000000E+01 0. -1.
         -5    1    4    4    0  501  0.34102613105E+02 -0.14913505351E+02  0.28062208622E+02  0.46850596743E+02  0.47000000000E+01 0. -1.
          1    1    1    2  502    0 -0.13045253972E+03 -0.13560279564E+03  0.68064040109E+03  0.70617089922E+03  0.00000000000E+00 0. -1.
          1    1    1    2  503    0 -0.92302162521E+01 -0.29625212815E+02 -0.26525178433E+03  0.26706059091E+03  0.00000000000E+00 0. -1.
<mgrwt>
<rscale>  0 0.78568457E+02</rscale>
<asrwt>0</asrwt>
<pdfrwt beam="1">  1        2 0.18561409E+00 0.19893770E+03</pdfrwt>
<pdfrwt beam="2">  1        2 0.61084119E-01 0.31029826E+02</pdfrwt>
<totfact> 0.25490300E+02</totfact>
</mgrwt>
</event>
<event>
13    1  0.1595792E-008  0.6084156E+02  0.7546771E-02  0.1481866E+00
          2   -1    0    0  503    0  0.00000000000E+00  0.00000000000E+00  0.79457297486E+03  0.79457297486E+03  0.00000000000E+00 0. -1.
         -3   -1    0    0    0  501 -0.00000000000E+00 -0.00000000000E+00 -0.45377831132E+03  0.45377831132E+03  0.00000000000E+00 0.  1.
         24    2    1    2    0    0 -0.12232489353E+02  0.41289449554E+01 -0.12266218865E+03  0.14933330837E+03  0.84188731329E+02 0.  0.
         25    2    1    2    0    0  0.35687400712E+02  0.54568947753E+02  0.17248746329E+02  0.14203048733E+03  0.12499511772E+03 0.  0.
         24    2    1    2    0    0 -0.40438631234E+01 -0.86878917938E+02  0.37989207506E+03  0.39771675023E+03  0.79349388837E+02 0.  0.
        -11    1    3    3    0    0  0.11215604724E+02  0.26705518096E+02 -0.78696826709E+01  0.30015102722E+02  0.00000000000E+00 0.  1.
         12    1    3    3    0    0 -0.23448094077E+02 -0.22576573140E+02 -0.11479250598E+03  0.11931820565E+03  0.00000000000E+00 0. -1.
        -13    1    5    5    0    0  0.64476344834E+01 -0.82722222306E+02  0.37706076583E+03  0.38608206275E+03  0.00000000000E+00 0.  1.
         14    1    5    5    0    0 -0.10491497607E+02 -0.41566956321E+01  0.28313092275E+01  0.11634687471E+02  0.00000000000E+00 0. -1.
          5    1    4    4  502    0  0.64294540887E+02  0.78313646501E+02  0.16709125148E+01  0.10144800227E+03  0.47000000000E+01 0.  1.
         -5    1    4    4    0  502 -0.28607140175E+02 -0.23744698748E+02  0.15577833814E+02  0.40582485064E+02  0.47000000000E+01 0.  1.
          1    1    1    2  503    0  0.30890004948E+02 -0.64486878756E+01  0.30819261683E+03  0.30980391710E+03  0.00000000000E+00 0. -1.
         -4    1    1    2    0  501 -0.50301053184E+02  0.34629713105E+02 -0.24187658603E+03  0.24946682314E+03  0.00000000000E+00 0.  1.
<mgrwt>
<rscale>  0 0.43816813E+02</rscale>
<asrwt>0</asrwt>
<pdfrwt beam="1">  1        2 0.11684897E+00 0.31555950E+02</pdfrwt>
<pdfrwt beam="2">  1       -3 0.66732104E-01 0.60841556E+02</pdfrwt>
<totfact> 0.53222026E+01</totfact>
</mgrwt>
</event>
<event>
13    1  0.1595792E-008  0.8264857E+02  0.7546771E-02  0.1382606E+00
          4   -1    0    0  503    0 -0.00000000000E+00  0.00000000000E+00  0.88063214335E+02  0.88063214335E+02  0.00000000000E+00 0. -1.
          2   -1    0    0  502    0  0.00000000000E+00 -0.00000000000E+00 -0.25053156437E+04  0.25053156437E+04  0.00000000000E+00 0. -1.
         24    2    1    2    0    0 -0.91530312194E+02 -0.71625380328E+02 -0.25460334973E+03  0.29089596422E+03  0.79307018301E+02 0.  0.
         25    2    1    2    0    0  0.13406878679E+03  0.32081939808E+02 -0.58898678300E+03  0.61768537609E+03  0.12500441122E+03 0.  0.
         24    2    1    2    0    0  0.28317477561E+02  0.14118173597E+03 -0.96638416315E+03  0.98039456362E+03  0.80876371556E+02 0.  0.
        -11    1    3    3    0    0 -0.80792715474E+02 -0.22789668326E+02 -0.11332283250E+03  0.14102799801E+03  0.00000000000E+00 0.  1.
         12    1    3    3    0    0 -0.10737596720E+02 -0.48835712002E+02 -0.14128051722E+03  0.14986796622E+03  0.00000000000E+00 0. -1.
        -11    1    5    5    0    0  0.28717834195E+02  0.14268861887E+03 -0.74933668759E+03  0.76334148801E+03  0.00000000000E+00 0.  1.
         12    1    5    5    0    0 -0.40035663383E+00 -0.15068829012E+01 -0.21704747556E+03  0.21705307560E+03  0.00000000000E+00 0. -1.
          5    1    4    4  501    0  0.42737105281E+02  0.73845834791E+02 -0.28087105017E+03  0.29358185282E+03  0.47000000000E+01 0.  1.
         -5    1    4    4    0  501  0.91331681514E+02 -0.41763894983E+02 -0.30811573284E+03  0.32410352327E+03  0.47000000000E+01 0.  1.
          1    1    1    2  502    0 -0.42553092930E+02 -0.24744905179E+02 -0.61959347078E+03  0.62154577071E+03  0.00000000000E+00 0. -1.
          3    1    1    2  503    0 -0.28302859232E+02 -0.76893390270E+02  0.12315337298E+02  0.82857183398E+02  0.00000000000E+00 0. -1.
<mgrwt>
<rscale>  0 0.63783658E+02</rscale>
<asrwt>0</asrwt>
<pdfrwt beam="2">  1        2 0.36842871E+00 0.49224750E+02</pdfrwt>
<pdfrwt beam="1">  1        4 0.12950475E-01 0.82648566E+02</pdfrwt>
<totfact> 0.13179462E+02</totfact>
</mgrwt>
</event>
<event>
13    1  0.1595792E-008  0.6702319E+02  0.7546771E-02  0.1561409E+00
         -1   -1    0    0    0  501 -0.00000000000E+00  0.00000000000E+00  0.83308755134E+03  0.83308755134E+03  0.00000000000E+00 0.  1.
          2   -1    0    0  503    0  0.00000000000E+00 -0.00000000000E+00 -0.19221769953E+04  0.19221769953E+04  0.00000000000E+00 0. -1.
         24    2    1    2    0    0 -0.69888553209E+01  0.38736891030E+02  0.82528458014E+02  0.12279082278E+03  0.81958824739E+02 0.  0.
         25    2    1    2    0    0 -0.71299777414E+02  0.63900991741E+02 -0.41501366811E+02  0.16283293033E+03  0.12500081899E+03 0.  0.
         24    2    1    2    0    0  0.33497036469E+02 -0.37278337704E+02 -0.83560258495E+02  0.12685574507E+03  0.81230150453E+02 0.  0.
        -13    1    5    5    0    0 -0.16905234149E+00  0.22194807764E+02 -0.50406162181E+01  0.22760621306E+02  0.00000000000E+00 0.  1.
         14    1    5    5    0    0  0.33666088811E+02 -0.59473145468E+02 -0.78519642277E+02  0.10409512376E+03  0.00000000000E+00 0. -1.
        -13    1    3    3    0    0 -0.16206985513E+02  0.49461486536E+02  0.15530591581E+02  0.54316703735E+02  0.00000000000E+00 0.  1.
         14    1    3    3    0    0  0.92181301919E+01 -0.10724595507E+02  0.66997866433E+02  0.68474119050E+02  0.00000000000E+00 0. -1.
          5    1    4    4  502    0 -0.17076317795E+02  0.43566208795E+02  0.40683749387E+02  0.62184183217E+02  0.47000000000E+01 0. -1.
         -5    1    4    4    0  502 -0.54223459619E+02  0.20334782946E+02 -0.82185116198E+02  0.10064874711E+03  0.47000000000E+01 0. -1.
          1    1    1    2  503    0  0.16123032427E+02 -0.48716001422E+01 -0.16929003070E+04  0.16929840915E+04  0.00000000000E+00 0. -1.
         -2    1    1    2    0  501  0.28668563839E+02 -0.60487944925E+02  0.64634403036E+03  0.64980095692E+03  0.00000000000E+00 0.  1.
<mgrwt>
<rscale>  0 0.33598626E+02</rscale>
<asrwt>0</asrwt>
<pdfrwt beam="2">  1        2 0.28267309E+00 0.16842941E+02</pdfrwt>
<pdfrwt beam="1">  1       -1 0.12251288E+00 0.67023193E+02</pdfrwt>
<totfact> 0.95354355E+00</totfact>
</mgrwt>
</event>
<event>
13    1  0.1595792E-008  0.1619919E+03  0.7546771E-02  0.1289183E+00
          2   -1    0    0  502    0  0.00000000000E+00  0.00000000000E+00  0.14327383724E+04  0.14327383724E+04  0.00000000000E+00 0. -1.
          2   -1    0    0  503    0 -0.00000000000E+00 -0.00000000000E+00 -0.18147749769E+04  0.18147749769E+04  0.00000000000E+00 0. -1.
         24    2    1    2    0    0 -0.48766424104E+02  0.15101313455E+03 -0.10841976974E+04  0.10987004926E+04  0.80467350680E+02 0.  0.
         25    2    1    2    0    0  0.22734012700E+03  0.24994334551E+02 -0.17593687657E+03  0.31446194190E+03  0.12499711301E+03 0.  0.
         24    2    1    2    0    0  0.17693062443E+02 -0.96141219057E+02  0.25637656075E+03  0.28796049765E+03  0.87384946303E+02 0.  0.
        -11    1    3    3    0    0 -0.41321355234E+02  0.27347953223E+02 -0.43269827176E+03  0.43552630153E+03  0.00000000000E+00 0.  1.
         12    1    3    3    0    0 -0.74450688693E+01  0.12366518132E+03 -0.65149942565E+03  0.66317419111E+03  0.00000000000E+00 0. -1.
        -13    1    5    5    0    0  0.32521821325E+02  0.95566947979E+00  0.54907748766E+02  0.63823530465E+02  0.00000000000E+00 0.  1.
         14    1    5    5    0    0 -0.14828758882E+02 -0.97096888537E+02  0.20146881199E+03  0.22413696718E+03  0.00000000000E+00 0. -1.
          5    1    4    4  501    0  0.25167199549E+02 -0.35176561949E+02 -0.67734785658E+01  0.44031221373E+02  0.47000000000E+01 0. -1.
         -5    1    4    4    0  501  0.20217292745E+03  0.60170896500E+02 -0.16916339800E+03  0.27043072053E+03  0.47000000000E+01 0. -1.
          1    1    1    2  502    0 -0.13988537476E+03 -0.73304347617E+02  0.10765304698E+04  0.10880529849E+04  0.00000000000E+00 0. -1.
          1    1    1    2  503    0 -0.56381390585E+02 -0.65619024244E+01 -0.45480906108E+03  0.45833743226E+03  0.00000000000E+00 0. -1.
<mgrwt>
<rscale>  0 0.95890437E+02</rscale>
<asrwt>0</asrwt>
<pdfrwt beam="1">  1        2 0.21069682E+00 0.16199187E+03</pdfrwt>
<pdfrwt beam="2">  1        2 0.26687867E+00 0.56761957E+02</pdfrwt>
<totfact> 0.30938406E+01</totfact>
</mgrwt>
</event>
<event>
13    1  0.1595792E-008  0.1780089E+03  0.7546771E-02  0.1306436E+00
         -1   -1    0    0    0  501 -0.00000000000E+00  0.00000000000E+00  0.24801878532E+04  0.24801878532E+04  0.00000000000E+00 0.  1.
          2   -1    0    0  503    0  0.00000000000E+00 -0.00000000000E+00 -0.17165081713E+04  0.17165081713E+04  0.00000000000E+00 0. -1.
         24    2    1    2    0    0  0.20993607407E+02  0.47029524426E+02  0.89712743679E+03  0.90244409465E+03  0.83157671918E+02 0.  0.
         25    2    1    2    0    0 -0.75518506472E+02 -0.15030732789E+03  0.92960560204E+03  0.95293577899E+03  0.12499874362E+03 0.  0.
         24    2    1    2    0    0  0.10790058452E+03 -0.86171496870E+02  0.34532819999E+03  0.38043053586E+03  0.80048509604E+02 0.  0.
        -11    1    5    5    0    0  0.55007936400E+02 -0.68205584026E+02  0.28520694061E+03  0.29836366020E+03  0.00000000000E+00 0.  1.
         12    1    5    5    0    0  0.52892648120E+02 -0.17965912844E+02  0.60121259384E+02  0.82066875652E+02  0.00000000000E+00 0. -1.
        -13    1    3    3    0    0  0.50695536007E+02  0.13519929573E+02  0.43517276658E+03  0.43832426655E+03  0.00000000000E+00 0.  1.
         14    1    3    3    0    0 -0.29701928600E+02  0.33509594853E+02  0.46195467021E+03  0.46411982810E+03  0.00000000000E+00 0. -1.
          5    1    4    4  502    0 -0.49212418459E+02 -0.79627756545E+02  0.21753358290E+03  0.23686576670E+03  0.47000000000E+01 0.  1.
         -5    1    4    4    0  502 -0.26306088013E+02 -0.70679571342E+02  0.71207201914E+03  0.71607001229E+03  0.47000000000E+01 0.  1.
          1    1    1    2  503    0 -0.83728362517E+02  0.15754616562E+03 -0.16781194266E+04  0.16875769739E+04  0.00000000000E+00 0. -1.
         -2    1    1    2    0  501  0.30352677061E+02  0.31903134707E+02  0.26973786967E+03  0.27330864118E+03  0.00000000000E+00 0.  1.
<mgrwt>
<rscale>  0 0.88536148E+02</rscale>
<asrwt>0</asrwt>
<pdfrwt beam="2">  1        2 0.25242767E+00 0.17800889E+03</pdfrwt>
<pdfrwt beam="1">  1       -1 0.36473351E+00 0.44035157E+02</pdfrwt>
<totfact> 0.27229036E-01</totfact>
</mgrwt>
</event>
<event>
13    1  0.1595792E-008  0.3061436E+02  0.7546771E-02  0.1688769E+00
          2   -1    0    0  502    0  0.00000000000E+00  0.00000000000E+00  0.12541357118E+04  0.12541357118E+04  0.00000000000E+00 0. -1.
          2   -1    0    0  503    0 -0.00000000000E+00 -0.00000000000E+00 -0.35835646404E+03  0.35835646404E+03  0.00000000000E+00 0. -1.
         24    2    1    2    0    0  0.13590022195E+03 -0.39547941875E+00 -0.14446569284E+03  0.21372374931E+03  0.79614558231E+02 0.  0.
         25    2    1    2    0    0 -0.18450875889E+03 -0.21815472479E+02  0.46241804179E+03  0.51378098907E+03  0.12498424862E+03 0.  0.
         24    2    1    2    0    0  0.14716894627E+02 -0.58821744420E+01  0.60334487378E+02  0.10335922747E+03  0.82411725937E+02 0.  0.
        -13    1    3    3    0    0  0.67300045632E+02 -0.14212008257E+02 -0.21195261739E+02  0.71975804552E+02  0.00000000000E+00 0.  1.
         14    1    3    3    0    0  0.68600176316E+02  0.13816528838E+02 -0.12327043110E+03  0.14174794476E+03  0.00000000000E+00 0. -1.
        -13    1    5    5    0    0 -0.31236397141E+02 -0.25180711831E+01  0.44923882437E+02  0.54774158159E+02  0.00000000000E+00 0.  1.
         14    1    5    5    0    0  0.45953291768E+02 -0.33641032589E+01  0.15410604941E+02  0.48585069308E+02  0.00000000000E+00 0. -1.
          5    1    4    4  501    0 -0.10835746963E+03 -0.65072755700E+02  0.34328767683E+03  0.36584740511E+03  0.47000000000E+01 0.  1.
         -5    1    4    4    0  501 -0.76151289255E+02  0.43257283221E+02  0.11913036496E+03  0.14793358396E+03  0.47000000000E+01 0.  1.
          1    1    1    2  502    0  0.17377037838E+02  0.23545770749E+01  0.64766973224E+03  0.64790708249E+03  0.00000000000E+00 0. -1.
          1    1    1    2  503    0  0.16514604475E+02  0.25738549265E+02 -0.13017732083E+03  0.13372112750E+03  0.00000000000E+00 0. -1.
<mgrwt>
<rscale>  0 0.23169988E+02</rscale>
<asrwt>0</asrwt>
<pdfrwt beam="1">  1        2 0.18443172E+00 0.17535834E+02</pdfrwt>
<pdfrwt beam="2">  1        2 0.52699480E-01 0.30614362E+02</pdfrwt>
<totfact> 0.35058253E+02</totfact>
</mgrwt>
</event>
<event>
13    1  0.1595792E-008  0.6734814E+02  0.7546771E-02  0.1410011E+00
          2   -1    0    0  502    0  0.00000000000E+00  0.00000000000E+00  0.13095940619E+04  0.13095940619E+04  0.00000000000E+00 0. -1.
          2   -1    0    0  503    0 -0.00000000000E+00 -0.00000000000E+00 -0.14479491988E+04  0.14479491988E+04  0.00000000000E+00 0. -1.
         24    2    1    2    0    0 -0.11759707703E+02 -0.25504242990E+02 -0.22010849225E+02  0.86405573487E+02  0.78693637037E+02 0.  0.
         25    2    1    2    0    0  0.83879744100E+01 -0.22805465718E+02  0.19271878518E+03  0.23098908446E+03  0.12499991839E+03 0.  0.
         24    2    1    2    0    0  0.67596721502E+02 -0.15351677340E+02  0.18571762321E+03  0.21372244809E+03  0.79882779696E+02 0.  0.
        -11    1    5    5    0    0  0.72735451509E+02  0.14097953033E+02  0.14875008970E+03  0.16617998487E+03  0.00000000000E+00 0.  1.
         12    1    5    5    0    0 -0.51387300074E+01 -0.29449630373E+02  0.36967533512E+02  0.47542463221E+02  0.00000000000E+00 0. -1.
        -13    1    3    3    0    0 -0.42214660726E+02 -0.14772104148E+02 -0.29083800481E+02  0.53349415101E+02  0.00000000000E+00 0.  1.
         14    1    3    3    0    0  0.30454953023E+02 -0.10732138842E+02  0.70729512554E+01  0.33056158386E+02  0.00000000000E+00 0. -1.
          5    1    4    4  501    0  0.80002914401E+01 -0.68523819518E+02  0.16078264213E+03  0.17502190296E+03  0.47000000000E+01 0.  1.
         -5    1    4    4    0  501  0.38768296986E+00  0.45718353800E+02  0.31936143047E+02  0.55967181500E+02  0.47000000000E+01 0.  1.
          1    1    1    2  502    0 -0.15687720614E+02  0.65345104562E+02  0.86408427990E+03  0.86669356178E+03  0.00000000000E+00 0. -1.
          1    1    1    2  503    0 -0.48537267595E+02 -0.16837185138E+01 -0.13588649760E+04  0.13597325929E+04  0.00000000000E+00 0. -1.
<mgrwt>
<rscale>  0 0.57191439E+02</rscale>
<asrwt>0</asrwt>
<pdfrwt beam="1">  1        2 0.19258736E+00 0.67348137E+02</pdfrwt>
<pdfrwt beam="2">  1        2 0.21293370E+00 0.48566462E+02</pdfrwt>
<totfact> 0.57416204E+01</totfact>
</mgrwt>
</event>
<event>
13    1  0.1595792E-008  0.8031853E+02  0.7546771E-02  0.1470723E+00
         -3   -1    0    0    0  502 -0.00000000000E+00  0.00000000000E+00  0.27140994311E+03  0.27140994311E+03  0.00000000000E+00 0.  1.
         -1   -1    0    0    0  501  0.00000000000E+00 -0.00000000000E+00 -0.68017491241E+03  0.68017491241E+03  0.00000000000E+00 0.  1.
         24    2    1    2    0    0  0.11376994803E+02 -0.47169053335E+02  0.49540056164E+02  0.10430052713E+03  0.77910379224E+02 0.  0.
         25    2    1    2    0    0  0.56478181477E+02  0.14442470037E+03 -0.25389400949E+03  0.32270068338E+03  0.12500113574E+03 0.  0.
         24    2    1    2    0    0  0.25073526573E+01 -0.32919054877E+02 -0.17750130762E+03  0.19691930587E+03  0.78616460279E+02 0.  0.
        -13    1    3    3    0    0 -0.33029075073E+02 -0.17026537509E+02  0.27741613585E+02  0.46372620198E+02  0.00000000000E+00 0.  1.
         14    1    3    3    0    0  0.44406069876E+02 -0.30142515826E+02  0.21798442579E+02  0.57927906928E+02  0.00000000000E+00 0. -1.
        -13    1    5    5    0    0  0.33824731509E+02 -0.37708864083E+02 -0.13276647134E+03  0.14210209993E+03  0.00000000000E+00 0.  1.
         14    1    5    5    0    0 -0.31317378852E+02  0.47898092055E+01 -0.44734836279E+02  0.54817205942E+02  0.00000000000E+00 0. -1.
          5    1    4    4  503    0  0.86787992628E+02  0.13145610507E+03 -0.23886156906E+03  0.28616394322E+03  0.47000000000E+01 0. -1.
         -5    1    4    4    0  503 -0.30309811151E+02  0.12968595300E+02 -0.15032440434E+02  0.36536740159E+02  0.47000000000E+01 0. -1.
         -2    1    1    2    0  501 -0.25781687381E+02  0.21563078570E+01 -0.16555624715E+03  0.16756555743E+03  0.00000000000E+00 0.  1.
         -4    1    1    2    0  502 -0.44580841556E+02 -0.66492900014E+02  0.13864653879E+03  0.16009878171E+03  0.00000000000E+00 0.  1.
<mgrwt>
<rscale>  0 0.45584836E+02</rscale>
<asrwt>0</asrwt>
<pdfrwt beam="2">  1       -1 0.10002572E+00 0.25871704E+02</pdfrwt>
<pdfrwt beam="1">  1       -3 0.39913228E-01 0.80318532E+02</pdfrwt>
<totfact> 0.30127098E+01</totfact>
</mgrwt>
</event>
<event>
13    1  0.1595792E-008  0.8224242E+02  0.7546771E-02  0.1390005E+00
          2   -1    0    0  502    0  0.00000000000E+00  0.00000000000E+00  0.26359828537E+04  0.26359828537E+04  0.00000000000E+00 0. -1.
          2   -1    0    0  503    0 -0.00000000000E+00 -0.00000000000E+00 -0.15284687560E+04  0.15284687560E+04  0.00000000000E+00 0. -1.
         24    2    1    2    0    0  0.38223288895E+02 -0.41302882399E+01 -0.17004205783E+03  0.19060336710E+03  0.77053637332E+02 0.  0.
         25    2    1    2    0    0 -0.68993475349E+02 -0.52145289820E+03  0.15546350173E+03  0.56255414143E+03  0.12500014797E+03 0.  0.
         24    2    1    2    0    0  0.61517556372E+02  0.56774114063E+03  0.13994395153E+03  0.59346069636E+03  0.80603201188E+02 0.  0.
        -11    1    5    5    0    0 -0.18722963531E+01  0.34443993718E+03  0.90349068490E+02  0.35609736028E+03  0.00000000000E+00 0.  1.
         12    1    5    5    0    0  0.63389852725E+02  0.22330120345E+03  0.49594883039E+02  0.23736333608E+03  0.00000000000E+00 0. -1.
        -13    1    3    3    0    0 -0.20984220699E+02  0.90792717737E+01 -0.27997855910E+02  0.36147622741E+02  0.00000000000E+00 0.  1.
         14    1    3    3    0    0  0.59207509594E+02 -0.13209560014E+02 -0.14204420192E+03  0.15445574436E+03  0.00000000000E+00 0. -1.
          5    1    4    4  501    0 -0.82125869073E+02 -0.25600254857E+03  0.36605298654E+02  0.27137428238E+03  0.47000000000E+01 0. -1.
         -5    1    4    4    0  501  0.13132393724E+02 -0.26545034963E+03  0.11885820307E+03  0.29117985905E+03  0.47000000000E+01 0. -1.
          1    1    1    2  502    0 -0.24057521231E+02  0.39906893221E+02  0.18978579409E+04  0.18984299009E+04  0.00000000000E+00 0. -1.
          1    1    1    2  503    0 -0.66898486875E+01 -0.82064847416E+02 -0.91570923869E+03  0.91940350395E+03  0.00000000000E+00 0. -1.
<mgrwt>
<rscale>  0 0.61905483E+02</rscale>
<asrwt>0</asrwt>
<pdfrwt beam="1">  1        2 0.38764454E+00 0.46597473E+02</pdfrwt>
<pdfrwt beam="2">  1        2 0.22477482E+00 0.82242419E+02</pdfrwt>
<totfact> 0.12224372E+01</totfact>
</mgrwt>
</event>
<event>
13    1  0.1595792E-008  0.1260795E+03  0.7546771E-02  0.1260566E+00
          2   -1    0    0  503    0  0.00000000000E+00  0.00000000000E+00  0.24089989704E+04  0.24089989704E+04  0.00000000000E+00 0. -1.
         -3   -1    0    0    0  501 -0.00000000000E+00 -0.00000000000E+00 -0.18294789426E+03  0.18294789426E+03  0.00000000000E+00 0.  1.
         24    2    1    2    0    0 -0.32079651333E+02  0.31145763935E+02  0.32259557719E+02  0.97178966231E+02  0.80024432349E+02 0.  0.
         25    2    1    2    0    0 -0.46222600724E+02 -0.21226896412E+03  0.55292952626E+03  0.60708331948E+03  0.12499781534E+03 0.  0.
         24    2    1    2    0    0 -0.10275273962E+03  0.81257107306E+02  0.88219982519E+03  0.89565176081E+03  0.82186994706E+02 0.  0.
        -11    1    3    3    0    0 -0.30379192467E+02  0.57346166580E+02  0.27562875388E+02  0.70506668167E+02  0.00000000000E+00 0.  1.
         12    1    3    3    0    0 -0.17004588659E+01 -0.26200402645E+02  0.46966823307E+01  0.26672298064E+02  0.00000000000E+00 0. -1.
        -13    1    5    5    0    0 -0.93253266209E+02  0.98069883454E+02  0.77479967715E+03  0.78652934682E+03  0.00000000000E+00 0.  1.
         14    1    5    5    0    0 -0.94994734139E+01 -0.16812776147E+02  0.10740014804E+03  0.10912241399E+03  0.00000000000E+00 0. -1.
          5    1    4    4  502    0 -0.82932252913E+02 -0.18838978723E+03  0.47183833549E+03  0.51480285095E+03  0.47000000000E+01 0.  1.
         -5    1    4    4    0  502  0.36709652189E+02 -0.23879176888E+02  0.81091190766E+02  0.92280468533E+02  0.47000000000E+01 0.  1.
          1    1    1    2  503    0  0.92171623802E+02 -0.29348542145E+02  0.81848217770E+03  0.82417839111E+03  0.00000000000E+00 0. -1.
         -4    1    1    2    0  501  0.88883367878E+02  0.12921463502E+03 -0.59820010724E+02  0.16785442702E+03  0.00000000000E+00 0.  1.
<mgrwt>
<rscale>  0 0.11000202E+03</rscale>
<asrwt>0</asrwt>
<pdfrwt beam="1">  1        2 0.35426454E+00 0.95974689E+02</pdfrwt>
<pdfrwt beam="2">  1       -3 0.26904103E-01 0.12607953E+03</pdfrwt>
<totfact> 0.45818730E+01</totfact>
</mgrwt>
</event>
<event>
13    1  0.1595792E-008  0.1277832E+03  0.7546771E-02  0.1247510E+00
          2   -1    0    0  503    0  0.00000000000E+00  0.00000000000E+00  0.19519816106E+04  0.19519816106E+04  0.00000000000E+00 0. -1.
         -3   -1    0    0    0  501 -0.00000000000E+00 -0.00000000000E+00 -0.10523270597E+04  0.10523270597E+04  0.00000000000E+00 0.  1.
         24    2    1    2    0    0  0.68092719846E+02 -0.60383060915E+02 -0.29514302717E+02  0.12486779291E+03  0.80238015297E+02 0.  0.
         25    2    1    2    0    0  0.21263068581E+03  0.12347163706E+03  0.19397495098E+03  0.33720255613E+03  0.12498891371E+03 0.  0.
         24    2    1    2    0    0  0.34310859250E+02  0.22945859639E+02  0.82849846978E+02  0.12290865788E+03  0.80862188320E+02 0.  0.
        -13    1    3    3    0    0  0.77015249838E+02 -0.71947673030E+02 -0.19563961143E+02  0.10719405272E+03  0.00000000000E+00 0.  1.
         14    1    3    3    0    0 -0.89225299922E+01  0.11564612116E+02 -0.99503415742E+01  0.17673740190E+02  0.00000000000E+00 0. -1.
        -13    1    5    5    0    0  0.40394368852E+02  0.49028174264E+02  0.63873557192E+02  0.90084949992E+02  0.00000000000E+00 0.  1.
         14    1    5    5    0    0 -0.60835096025E+01 -0.26082314626E+02  0.18976289786E+02  0.32823707886E+02  0.00000000000E+00 0. -1.
          5    1    4    4  502    0  0.16845999017E+03  0.12932907961E+03  0.10363474215E+03  0.23636207162E+03  0.47000000000E+01 0.  1.
         -5    1    4    4    0  502  0.44170695642E+02 -0.58574425446E+01  0.90340208827E+02  0.10084048452E+03  0.47000000000E+01 0.  1.
          1    1    1    2  503    0 -0.16920981400E+03 -0.93494095900E+02  0.15236542040E+04  0.15358695389E+04  0.00000000000E+00 0. -1.
         -4    1    1    2    0  501 -0.14582445090E+03  0.74596601143E+01 -0.87131014829E+03  0.88346012446E+03  0.00000000000E+00 0.  1.
<mgrwt>
<rscale>  0 0.11736429E+03</rscale>
<asrwt>0</asrwt>
<pdfrwt beam="1">  1        2 0.28705612E+00 0.12778317E+03</pdfrwt>
<pdfrwt beam="2">  1       -3 0.15475398E+00 0.10779492E+03</pdfrwt>
<totfact> 0.18614435E+00</totfact>
</mgrwt>
</event>
<event>
13    1  0.1595792E-008  0.1864564E+03  0.7546771E-02  0.1336283E+00
          2   -1    0    0  502    0  0.00000000000E+00  0.00000000000E+00  0.30347058671E+04  0.30347058671E+04  0.00000000000E+00 0. -1.
          2   -1    0    0  503    0 -0.00000000000E+00 -0.00000000000E+00 -0.11427373345E+04  0.11427373345E+04  0.00000000000E+00 0. -1.
         24    2    1    2    0    0  0.42064073800E+00  0.20406155796E+02 -0.32334196226E+03  0.33308422647E+03  0.77320690850E+02 0.  0.
         25    2    1    2    0    0 -0.91760904945E+02 -0.52109820976E+02 -0.14293740457E+03  0.21723889640E+03  0.12500455738E+03 0.  0.
         24    2    1    2    0    0  0.22200489919E+03 -0.31743324716E+02  0.13099166037E+04  0.13314170171E+04  0.80597460433E+02 0.  0.
        -11    1    3    3    0    0 -0.11236248928E+02 -0.16085843627E+02 -0.24593483270E+03  0.24671633426E+03  0.00000000000E+00 0.  1.
         12    1    3    3    0    0  0.11656889666E+02  0.36491999423E+02 -0.77407129558E+02  0.86367892211E+02  0.00000000000E+00 0. -1.
        -13    1    5    5    0    0  0.56718048318E+02  0.25946314401E+02  0.29629254685E+03  0.30278609868E+03  0.00000000000E+00 0.  1.
         14    1    5    5    0    0  0.16528685087E+03 -0.57689639117E+02  0.10136240569E+04  0.10286309184E+04  0.00000000000E+00 0. -1.
          5    1    4    4  501    0  0.20762816593E+02 -0.22464852009E+02  0.23491426538E+01  0.31038244149E+02  0.47000000000E+01 0.  1.
         -5    1    4    4    0  501 -0.11252372154E+03 -0.29644968968E+02 -0.14528654723E+03  0.18620065225E+03  0.47000000000E+01 0.  1.
          1    1    1    2  502    0 -0.15098204580E+03  0.88449937565E+02  0.16670187526E+04  0.16761773447E+04  0.00000000000E+00 0. -1.
          1    1    1    2  503    0  0.20317410816E+02 -0.25002947669E+02 -0.61868745687E+03  0.61952571687E+03  0.00000000000E+00 0. -1.
<mgrwt>
<rscale>  0 0.77505434E+02</rscale>
<asrwt>0</asrwt>
<pdfrwt beam="1">  1        2 0.44628027E+00 0.18645637E+03</pdfrwt>
<pdfrwt beam="2">  1        2 0.16804961E+00 0.32217147E+02</pdfrwt>
<totfact> 0.10282287E+01</totfact>
</mgrwt>
</event>
<event>
13    1  0.1595792E-008  0.1219319E+03  0.7546771E-02  0.1293390E+00
          2   -1    0    0  502    0  0.00000000000E+00  0.00000000000E+00  0.14023443321E+04  0.14023443321E+04  0.00000000000E+00 0. -1.
          2   -1    0    0  503    0 -0.00000000000E+00 -0.00000000000E+00 -0.41177516873E+04  0.41177516873E+04  0.00000000000E+00 0. -1.
         24    2    1    2    0    0 -0.34846917482E+03  0.15504011096E+03 -0.25783438014E+04  0.26076317877E+04  0.80116040833E+02 0.  0.
         25    2    1    2    0    0  0.29967724307E+03 -0.41665083798E+03 -0.24760544306E+02  0.52881173214E+03  0.12499757073E+03 0.  0.
         24    2    1    2    0    0  0.12729908173E+02  0.29704903704E+03  0.10462427714E+02  0.30852851983E+03  0.81732516095E+02 0.  0.
        -13    1    3    3    0    0 -0.17380642872E+03  0.36738781809E+02 -0.12778988060E+04  0.12901874946E+04  0.00000000000E+00 0.  1.
         14    1    3    3    0    0 -0.17466274610E+03  0.11830132915E+03 -0.13004449954E+04  0.13174442931E+04  0.00000000000E+00 0. -1.
        -13    1    5    5    0    0  0.19189028489E+02  0.25161323323E+03 -0.20488490433E+02  0.25317428027E+03  0.00000000000E+00 0.  1.
         14    1    5    5    0    0 -0.64591203164E+01  0.45435803810E+02  0.30950918147E+02  0.55354239560E+02  0.00000000000E+00 0. -1.
          5    1    4    4  501    0  0.16855825242E+03 -0.20854148475E+03  0.47595258607E+02  0.27237627275E+03  0.47000000000E+01 0. -1.
         -5    1    4    4    0  501  0.13111899065E+03 -0.20810935324E+03 -0.72355802913E+02  0.25643545938E+03  0.47000000000E+01 0. -1.
          1    1    1    2  502    0  0.72688271701E+02 -0.98010233984E+02  0.97116131901E+03  0.97879716916E+03  0.00000000000E+00 0. -1.
          1    1    1    2  503    0 -0.36626248116E+02  0.62571923967E+02 -0.10939267563E+04  0.10963268107E+04  0.00000000000E+00 0. -1.
<mgrwt>
<rscale>  0 0.94023733E+02</rscale>
<asrwt>0</asrwt>
<pdfrwt beam="1">  1        2 0.20622710E+00 0.12193187E+03</pdfrwt>
<pdfrwt beam="2">  1        2 0.60555173E+00 0.72503295E+02</pdfrwt>
<totfact> 0.18116527E+00</totfact>
</mgrwt>
</event>
<event>
13    1  0.1595792E-008  0.1372561E+03  0.7546771E-02  0.1248724E+00
         -3   -1    0    0    0  501 -0.00000000000E+00  0.00000000000E+00  0.78158169476E+03  0.78158169476E+03  0.00000000000E+00 0.  1.
          2   -1    0    0  503    0  0.00000000000E+00 -0.00000000000E+00 -0.31280961102E+04  0.31280961102E+04  0.00000000000E+00 0. -1.
         24    2    1    2    0    0 -0.28341497819E+02 -0.34852999345E+02  0.37116196945E-01  0.93078149123E+02  0.81520355768E+02 0.  0.
         25    2    1    2    0    0  0.21156093199E+03 -0.58131322868E+02 -0.39767132961E+03  0.47106696326E+03  0.12499727534E+03 0.  0.
         24    2    1    2    0    0  0.71900487686E+02 -0.12024955261E+02 -0.92909386984E+02  0.14337811794E+03  0.81307138902E+02 0.  0.
        -11    1    5    5    0    0  0.69147384271E+02  0.23730818443E+02 -0.66678254890E+02  0.98946966455E+02  0.00000000000E+00 0.  1.
         12    1    5    5    0    0  0.27531034151E+01 -0.35755773704E+02 -0.26231132094E+02  0.44431151488E+02  0.00000000000E+00 0. -1.
        -13    1    3    3    0    0 -0.27346619132E+02  0.14101846861E+02 -0.23532278017E+02  0.38735871896E+02  0.00000000000E+00 0.  1.
         14    1    3    3    0    0 -0.99487868695E+00 -0.48954846206E+02  0.23569394214E+02  0.54342277227E+02  0.00000000000E+00 0. -1.
          5    1    4    4  502    0  0.16354751778E+03 -0.67570645158E+02 -0.37932620906E+03  0.41859771325E+03  0.47000000000E+01 0. -1.
         -5    1    4    4    0  502  0.48013414206E+02  0.94393222900E+01 -0.18345120555E+02  0.52469250015E+02  0.47000000000E+01 0. -1.
          1    1    1    2  503    0 -0.80924656644E+02  0.57265714847E+02 -0.25159518818E+04  0.25179042940E+04  0.00000000000E+00 0. -1.
         -4    1    1    2    0  501 -0.17419526521E+03  0.47743562628E+02  0.65998106672E+03  0.68425028068E+03  0.00000000000E+00 0.  1.
<mgrwt>
<rscale>  0 0.11665212E+03</rscale>
<asrwt>0</asrwt>
<pdfrwt beam="2">  1        2 0.46001414E+00 0.99141093E+02</pdfrwt>
<pdfrwt beam="1">  1       -3 0.11493848E+00 0.13725608E+03</pdfrwt>
<totfact> 0.99855542E-01</totfact>
</mgrwt>
</event>
<event>
13    1  0.1595792E-008  0.8171608E+02  0.7546771E-02  0.1440285E+00
         -3   -1    0    0    0  501 -0.00000000000E+00  0.00000000000E+00  0.31758948770E+04  0.31758948770E+04  0.00000000000E+00 0.  1.
          2   -1    0    0  503    0  0.00000000000E+00 -0.00000000000E+00 -0.24465372004E+04  0.24465372004E+04  0.00000000000E+00 0. -1.
         24    2    1    2    0    0 -0.49245079078E+03  0.33742602530E+03  0.60780593800E+03  0.85566150627E+03  0.79777510343E+02 0.  0.
         25    2    1    2    0    0  0.27253019492E+02 -0.12582103597E+03 -0.11710977594E+03  0.21427567809E+03  0.12500282571E+03 0.  0.
         24    2    1    2    0    0  0.48167068944E+03 -0.30829210290E+03 -0.19069155659E+04  0.19938270851E+04  0.10940199402E+03 0.  0.
        -13    1    3    3    0    0 -0.28682446791E+03  0.23549097804E+03  0.34438772009E+03  0.50628764342E+03  0.00000000000E+00 0.  1.
         14    1    3    3    0    0 -0.20562632287E+03  0.10193504726E+03  0.26341821792E+03  0.34937386285E+03  0.00000000000E+00 0. -1.
        -13    1    5    5    0    0  0.46392402581E+03 -0.27085399469E+03 -0.17020548514E+04  0.17848187878E+04  0.00000000000E+00 0.  1.
         14    1    5    5    0    0  0.17746663634E+02 -0.37438108209E+02 -0.20486071451E+03  0.20900829736E+03  0.00000000000E+00 0. -1.
          5    1    4    4  502    0  0.77262031742E+01  0.12135120393E+02  0.15645723855E+02  0.21767729266E+02  0.47000000000E+01 0.  1.
         -5    1    4    4    0  502  0.19526816318E+02 -0.13795615636E+03 -0.13275549980E+03  0.19250794882E+03  0.47000000000E+01 0.  1.
          1    1    1    2  503    0  0.20828751901E+02  0.23985732106E+02 -0.20460964644E+03  0.20706100469E+03  0.00000000000E+00 0. -1.
         -4    1    1    2    0  501 -0.37301670049E+02  0.72701381465E+02  0.23501867269E+04  0.23516068032E+04  0.00000000000E+00 0.  1.
<mgrwt>
<rscale>  0 0.50949854E+02</rscale>
<asrwt>0</asrwt>
<pdfrwt beam="2">  1        2 0.35978488E+00 0.31767157E+02</pdfrwt>
<pdfrwt beam="1">  1       -3 0.46704336E+00 0.81716084E+02</pdfrwt>
<totfact> 0.26797380E-02</totfact>
</mgrwt>
</event>
<event>
13    1  0.1595792E-008  0.2117966E+03  0.7546771E-02  0.1248550E+00
          2   -1    0    0  502    0  0.00000000000E+00  0.00000000000E+00  0.16252264933E+04  0.16252264933E+04  0.00000000000E+00 0. -1.
          2   -1    0    0  503    0 -0.00000000000E+00 -0.00000000000E+00 -0.53912502795E+03  0.53912502795E+03  0.00000000000E+00 0. -1.
         24    2    1    2    0    0  0.19067233108E+02 -0.21661642370E+03  0.23206295918E+02  0.23446803960E+03  0.84560599750E+02 0.  0.
         25    2    1    2    0    0 -0.27781316965E+03 -0.40515090280E+02  0.34336925418E+03  0.46081509450E+03  0.12500590717E+03 0.  0.
         24    2    1    2    0    0  0.50127968146E+02  0.95038401681E+02  0.15953161578E+03  0.20834524398E+03  0.80076796078E+02 0.  0.
        -11    1    3    3    0    0  0.31638959508E+02 -0.28758588553E+02 -0.83501695063E+01  0.43563809579E+02  0.00000000000E+00 0.  1.
         12    1    3    3    0    0 -0.12571726400E+02 -0.18785783515E+03  0.31556465424E+02  0.19090423002E+03  0.00000000000E+00 0. -1.
        -13    1    5    5    0    0  0.35582550907E+02  0.20661927375E+01  0.22627497315E+02  0.42218369417E+02  0.00000000000E+00 0.  1.
         14    1    5    5    0    0  0.14545417239E+02  0.92972208943E+02  0.13690411847E+03  0.16612687456E+03  0.00000000000E+00 0. -1.
          5    1    4    4  501    0 -0.16393349959E+03  0.27184809731E+02  0.24352219280E+03  0.29485310674E+03  0.47000000000E+01 0. -1.
         -5    1    4    4    0  501 -0.11387967006E+03 -0.67699900010E+02  0.99847061388E+02  0.16596198776E+03  0.47000000000E+01 0. -1.
          1    1    1    2  502    0  0.28943397810E+02  0.57485885848E+02  0.87823378411E+03  0.88058896592E+03  0.00000000000E+00 0. -1.
          1    1    1    2  503    0  0.17967457058E+03  0.10460722645E+03 -0.31823948463E+03  0.38013417726E+03  0.00000000000E+00 0. -1.
<mgrwt>
<rscale>  0 0.11675383E+03</rscale>
<asrwt>0</asrwt>
<pdfrwt beam="1">  1        2 0.23900389E+00 0.64361070E+02</pdfrwt>
<pdfrwt beam="2">  1        2 0.79283093E-01 0.21179663E+03</pdfrwt>
<totfact> 0.13557859E+02</totfact>
</mgrwt>
</event>
<event>
13    1  0.1595792E-008  0.1710388E+03  0.7546771E-02  0.1263682E+00
          2   -1    0    0  502    0  0.00000000000E+00  0.00000000000E+00  0.21920390351E+04  0.21920390351E+04  0.00000000000E+00 0. -1.
          2   -1    0    0  503    0 -0.00000000000E+00 -0.00000000000E+00 -0.13170852123E+04  0.13170852123E+04  0.00000000000E+00 0. -1.
         24    2    1    2    0    0  0.12603954296E+03 -0.64323753278E+02 -0.56378801216E+02  0.17245962683E+03  0.80871762908E+02 0.  0.
         25    2    1    2    0    0 -0.14293446539E+03  0.11162297837E+03 -0.75457772026E+02  0.23282770096E+03  0.12499964912E+03 0.  0.
         24    2    1    2    0    0  0.42741896015E+01 -0.21636790331E+03  0.13986588493E+04  0.14177855493E+04  0.83880562981E+02 0.  0.
        -11    1    5    5    0    0 -0.24429436256E+02 -0.27385940902E+02  0.14168396722E+03  0.14635960400E+03  0.00000000000E+00 0.  1.
         12    1    5    5    0    0  0.28703625857E+02 -0.18898196241E+03  0.12569748821E+04  0.12714259453E+04  0.00000000000E+00 0. -1.
        -13    1    3    3    0    0  0.22249014376E+02 -0.36116340191E+02 -0.48768147129E+02  0.64635445724E+02  0.00000000000E+00 0.  1.
         14    1    3    3    0    0  0.10379052858E+03 -0.28207413088E+02 -0.76106540870E+01  0.10782418111E+03  0.00000000000E+00 0. -1.
          5    1    4    4  501    0 -0.12675472550E+03  0.21925403136E+02 -0.49834155792E+02  0.13803266578E+03  0.47000000000E+01 0.  1.
         -5    1    4    4    0  501 -0.16179739888E+02  0.89697575238E+02 -0.25623616234E+02  0.94795035183E+02  0.47000000000E+01 0.  1.
          1    1    1    2  502    0  0.48187647682E+02 -0.48854059444E+02  0.63348587867E+03  0.63719159363E+03  0.00000000000E+00 0. -1.
          1    1    1    2  503    0 -0.35566914851E+02  0.21792273766E+03 -0.10253543320E+04  0.10488597767E+04  0.00000000000E+00 0. -1.
<mgrwt>
<rscale>  0 0.10833635E+03</rscale>
<asrwt>0</asrwt>
<pdfrwt beam="1">  1        2 0.32235868E+00 0.68620467E+02</pdfrwt>
<pdfrwt beam="2">  1        2 0.19368900E+00 0.17103882E+03</pdfrwt>
<totfact> 0.23020678E+01</totfact>
</mgrwt>
</event>
<event>
13    1  0.1595792E-008  0.6080008E+02  0.7546771E-02  0.1412203E+00
          2   -1    0    0  503    0  0.00000000000E+00  0.00000000000E+00  0.24676675324E+04  0.24676675324E+04  0.00000000000E+00 0. -1.
          2   -1    0    0  502    0 -0.00000000000E+00 -0.00000000000E+00 -0.17390632475E+04  0.17390632475E+04  0.00000000000E+00 0. -1.
         24    2    1    2    0    0 -0.95015445081E+02  0.21834834761E+02 -0.28649756118E+03  0.31312295251E+03  0.80376837529E+02 0.  0.
         25    2    1    2    0    0  0.68969295459E+01  0.11538147161E+02  0.35422260007E+02  0.13061839853E+03  0.12500293218E+03 0.  0.
         24    2    1    2    0    0  0.14292574582E+03  0.50740055417E+02  0.39401186660E+03  0.43379361235E+03  0.99645496900E+02 0.  0.
        -11    1    5    5    0    0  0.73326534845E+02  0.11442560654E+02  0.30614816326E+03  0.31501493738E+03  0.00000000000E+00 0.  1.
         12    1    5    5    0    0  0.69599210972E+02  0.39297494763E+02  0.87863703347E+02  0.11877867497E+03  0.00000000000E+00 0. -1.
        -11    1    3    3    0    0  0.11753308591E+02  0.24322075525E+01 -0.69227144635E+02  0.70259899308E+02  0.00000000000E+00 0.  1.
         12    1    3    3    0    0 -0.10676875367E+03  0.19402627209E+02 -0.21727041654E+03  0.24286305320E+03  0.00000000000E+00 0. -1.
          5    1    4    4  501    0  0.64502327833E+02 -0.96668874100E+00  0.29807249146E+02  0.71218304421E+02  0.47000000000E+01 0. -1.
         -5    1    4    4    0  501 -0.57605398287E+02  0.12504835902E+02  0.56150108604E+01  0.59400094105E+02  0.47000000000E+01 0. -1.
          1    1    1    2  502    0 -0.27253633848E+01 -0.52815751609E+02 -0.13707824763E+04  0.13718022921E+04  0.00000000000E+00 0. -1.
          1    1    1    2  503    0 -0.52081866896E+02 -0.31297285730E+02  0.19564501957E+04  0.19573935244E+04  0.00000000000E+00 0. -1.
<mgrwt>
<rscale>  0 0.56705152E+02</rscale>
<asrwt>0</asrwt>
<pdfrwt beam="1">  1        2 0.36289229E+00 0.60800078E+02</pdfrwt>
<pdfrwt beam="2">  1        2 0.25574459E+00 0.52886021E+02</pdfrwt>
<totfact> 0.11714423E+01</totfact>
</mgrwt>
</event>
<event>
13    1  0.1595792E-008  0.6756768E+02  0.7546771E-02  0.1428268E+00
          2   -1    0    0  502    0  0.00000000000E+00  0.00000000000E+00  0.83988418903E+03  0.83988418903E+03  0.00000000000E+00 0. -1.
          2   -1    0    0  503    0 -0.00000000000E+00 -0.00000000000E+00 -0.80091285197E+03  0.80091285197E+03  0.00000000000E+00 0. -1.
         24    2    1    2    0    0  0.97795079162E+02  0.19704666764E+02 -0.76545421088E+02  0.15239651398E+03  0.86100781550E+02 0.  0.
         25    2    1    2    0    0 -0.83315581253E+02 -0.78900667386E+02  0.72068502578E+02  0.18436439894E+03  0.12501824323E+03 0.  0.
         24    2    1    2    0    0 -0.32872116147E+01  0.31163075794E+02  0.26934061930E+03  0.28370039226E+03  0.83424218953E+02 0.  0.
        -11    1    3    3    0    0  0.36802458431E+01 -0.18558814536E+02  0.76886389177E+01  0.20422756299E+02  0.00000000000E+00 0.  1.
         12    1    3    3    0    0  0.94114833319E+02  0.38263481300E+02 -0.84234060005E+02  0.13197375768E+03  0.00000000000E+00 0. -1.
        -11    1    5    5    0    0 -0.34200317992E+02  0.40926775357E+02  0.12757284511E+03  0.13827325664E+03  0.00000000000E+00 0.  1.
         12    1    5    5    0    0  0.30913106377E+02 -0.97636995635E+01  0.14176777420E+03  0.14542713562E+03  0.00000000000E+00 0. -1.
          5    1    4    4  501    0 -0.92645151781E+02 -0.97779861201E+02  0.31498270606E+02  0.13841335360E+03  0.47000000000E+01 0. -1.
         -5    1    4    4    0  501  0.93295705274E+01  0.18879193815E+02  0.40570231972E+02  0.45951045338E+02  0.47000000000E+01 0. -1.
          1    1    1    2  502    0 -0.14058052308E+02 -0.39640858791E+02  0.39425907222E+03  0.39649620748E+03  0.00000000000E+00 0. -1.
          1    1    1    2  503    0  0.28657660142E+01  0.67673783619E+02 -0.62015143595E+03  0.62383952834E+03  0.00000000000E+00 0. -1.
<mgrwt>
<rscale>  0 0.53309314E+02</rscale>
<asrwt>0</asrwt>
<pdfrwt beam="1">  1        2 0.12351238E+00 0.42059797E+02</pdfrwt>
<pdfrwt beam="2">  1        2 0.11778130E+00 0.67567683E+02</pdfrwt>
<totfact> 0.23261344E+02</totfact>
</mgrwt>
</event>
<event>
13    1  0.1595792E-008  0.9934937E+02  0.7546771E-02  0.1411479E+00
          2   -1    0    0  503    0  0.00000000000E+00  0.00000000000E+00  0.26243369757E+04  0.26243369757E+04  0.00000000000E+00 0. -1.
          2   -1    0    0  502    0 -0.00000000000E+00 -0.00000000000E+00 -0.14675857697E+03  0.14675857697E+03  0.00000000000E+00 0. -1.
         24    2    1    2    0    0  0.51385812458E+00 -0.78311167261E+02  0.10956016073E+03  0.15753408457E+03  0.81735280103E+02 0.  0.
         25    2    1    2    0    0  0.10886045976E+03  0.39595177381E+02  0.56693899717E+03  0.59199930951E+03  0.12499991270E+03 0.  0.
         24    2    1    2    0    0  0.27352261422E+01  0.68537222658E+02  0.46212833943E+03  0.47410311006E+03  0.80661790886E+02 0.  0.
        -13    1    5    5    0    0 -0.37274142724E+02  0.40988851700E+02  0.29035005929E+03  0.29558857320E+03  0.00000000000E+00 0.  1.
         14    1    5    5    0    0  0.40009368866E+02  0.27548370958E+02  0.17177828014E+03  0.17851453686E+03  0.00000000000E+00 0. -1.
        -13    1    3    3    0    0  0.18603366517E+02 -0.84395158046E+02  0.10809185676E+03  0.13839247611E+03  0.00000000000E+00 0.  1.
         14    1    3    3    0    0 -0.18089508392E+02  0.60839907853E+01  0.14683039758E+01  0.19141608457E+02  0.00000000000E+00 0. -1.
          5    1    4    4  501    0  0.38539782162E+02 -0.45093549915E+02  0.22581701219E+03  0.23352549335E+03  0.47000000000E+01 0.  1.
         -5    1    4    4    0  501  0.70320677599E+02  0.84688727297E+02  0.34112198498E+03  0.35847381616E+03  0.47000000000E+01 0.  1.
          1    1    1    2  502    0 -0.99010604071E+02 -0.25196374098E-01 -0.80517660091E+02  0.12761737319E+03  0.00000000000E+00 0. -1.
          1    1    1    2  503    0 -0.13098939957E+02 -0.29796036405E+02  0.14194685615E+04  0.14198416753E+04  0.00000000000E+00 0. -1.
<mgrwt>
<rscale>  0 0.56865140E+02</rscale>
<asrwt>0</asrwt>
<pdfrwt beam="1">  1        2 0.38593188E+00 0.32548211E+02</pdfrwt>
<pdfrwt beam="2">  1        2 0.21582145E-01 0.99349369E+02</pdfrwt>
<totfact> 0.20334356E+02</totfact>
</mgrwt>
</event>
<event>
13    1  0.1595792E-008  0.1377206E+03  0.7546771E-02  0.1409747E+00
          2   -1    0    0  503    0  0.00000000000E+00  0.00000000000E+00  0.16219526199E+04  0.16219526199E+04  0.00000000000E+00 0. -1.
          2   -1    0    0  502    0 -0.00000000000E+00 -0.00000000000E+00 -0.10278463314E+04  0.10278463314E+04  0.00000000000E+00 0. -1.
         24    2    1    2    0    0 -0.86947183777E+02 -0.22407297253E+02 -0.17921780038E+03  0.21583428362E+03  0.80021986222E+02 0.  0.
         25    2    1    2    0    0  0.31047040534E+01  0.14297885749E+03  0.60383934811E+02  0.19930982812E+03  0.12500238049E+03 0.  0.
         24    2    1    2    0    0 -0.44656049960E+02  0.82707194939E+01  0.77918368634E+03  0.78452689803E+03  0.79326345428E+02 0.  0.
        -13    1    5    5    0    0 -0.45229931824E+01 -0.32530673981E+02  0.22285616160E+03  0.22526333696E+03  0.00000000000E+00 0.  1.
         14    1    5    5    0    0 -0.40133056778E+02  0.40801393475E+02  0.55632752474E+03  0.55926356107E+03  0.00000000000E+00 0. -1.
        -13    1    3    3    0    0 -0.76865931735E+02  0.17731920170E+02 -0.11809856327E+03  0.14202134734E+03  0.00000000000E+00 0.  1.
         14    1    3    3    0    0 -0.10081252042E+02 -0.40139217424E+02 -0.61119237108E+02  0.73812936284E+02  0.00000000000E+00 0. -1.
          5    1    4    4  501    0 -0.33199649174E+02  0.13470935599E+03  0.13822174546E+02  0.13950616405E+03  0.47000000000E+01 0. -1.
         -5    1    4    4    0  501  0.36304353227E+02  0.82695014949E+01  0.46561760265E+02  0.59803664079E+02  0.47000000000E+01 0. -1.
          1    1    1    2  502    0  0.14953890898E+03 -0.11772056174E+03 -0.74603123391E+03  0.76992377411E+03  0.00000000000E+00 0. -1.
          1    1    1    2  503    0 -0.21040379302E+02 -0.11121717987E+02  0.67978770165E+03  0.68020416750E+03  0.00000000000E+00 0. -1.
<mgrwt>
<rscale>  0 0.57250381E+02</rscale>
<asrwt>0</asrwt>
<pdfrwt beam="1">  1        2 0.23852244E+00 0.23798953E+02</pdfrwt>
<pdfrwt beam="2">  1        2 0.15115387E+00 0.13772060E+03</pdfrwt>
<totfact> 0.68973928E+01</totfact>
</mgrwt>
</event>
<event>
13    1  0.1595792E-008  0.9576050E+02  0.7546771E-02  0.1323365E+00
          2   -1    0    0  503    0  0.00000000000E+00  0.00000000000E+00  0.34051230097E+04  0.34051230097E+04  0.00000000000E+00 0. -1.
          2   -1    0    0  502    0 -0.00000000000E+00 -0.00000000000E+00 -0.32705949810E+04  0.32705949810E+04  0.00000000000E+00 0. -1.
         24    2    1    2    0    0  0.30544032484E+01  0.21552020134E+02 -0.31390591449E+03  0.32519953771E+03  0.82121843784E+02 0.  0.
         25    2    1    2    0    0 -0.14884822619E+03  0.11871381030E+02 -0.69402610240E+03  0.72082869898E+03  0.12500023335E+03 0.  0.
         24    2    1    2    0    0  0.29634393318E+02  0.59293851082E+02  0.15376826252E+04  0.15412459679E+04  0.81100677716E+02 0.  0.
        -11    1    5    5    0    0  0.31916909047E+02  0.78310602222E+02  0.11602543133E+04  0.11633319866E+04  0.00000000000E+00 0.  1.
         12    1    5    5    0    0 -0.22825157290E+01 -0.19016751140E+02  0.37742831183E+03  0.37791398131E+03  0.00000000000E+00 0. -1.
        -13    1    3    3    0    0  0.34341628539E+02  0.30736721766E+02 -0.11952750219E+03  0.12810510254E+03  0.00000000000E+00 0.  1.
         14    1    3    3    0    0 -0.31287225291E+02 -0.91847016319E+01 -0.19437841230E+03  0.19709443518E+03  0.00000000000E+00 0. -1.
          5    1    4    4  501    0  0.79327699452E+01  0.33865428927E+02 -0.16030059653E+03  0.16409804193E+03  0.47000000000E+01 0. -1.
         -5    1    4    4    0  501 -0.15678099614E+03 -0.21994047896E+02 -0.53372550586E+03  0.55673065705E+03  0.47000000000E+01 0. -1.
          1    1    1    2  502    0  0.48440329764E+02 -0.11152338733E+03 -0.22395147180E+04  0.22428129890E+04  0.00000000000E+00 0. -1.
          1    1    1    2  503    0  0.67719099863E+02  0.18806135081E+02  0.18442921384E+04  0.18456307970E+04  0.00000000000E+00 0. -1.
<mgrwt>
<rscale>  0 0.82037986E+02</rscale>
<asrwt>0</asrwt>
<pdfrwt beam="1">  1        2 0.50075339E+00 0.70281912E+02</pdfrwt>
<pdfrwt beam="2">  1        2 0.48096985E+00 0.95760502E+02</pdfrwt>
<totfact> 0.59402730E-01</totfact>
</mgrwt>
</event>
<event>
13    1  0.1595792E-008  0.6283502E+02  0.7546771E-02  0.1659478E+00
          2   -1    0    0  502    0  0.00000000000E+00  0.00000000000E+00  0.23665027531E+04  0.23665027531E+04  0.00000000000E+00 0. -1.
          2   -1    0    0  503    0 -0.00000000000E+00 -0.00000000000E+00 -0.30760254911E+04  0.30760254911E+04  0.00000000000E+00 0. -1.
         24    2    1    2    0    0  0.69130440742E+02 -0.11472926793E+03 -0.25858490084E+04  0.25901631848E+04  0.66245051217E+02 0.  0.
         25    2    1    2    0    0 -0.77878537271E+01  0.42845601945E+03  0.13774971261E+03  0.46715596993E+03  0.12499802259E+03 0.  0.
         24    2    1    2    0    0 -0.23816837501E+02 -0.25949585470E+03  0.77840958148E+03  0.82488430311E+03  0.81285279234E+02 0.  0.
        -11    1    5    5    0    0 -0.91772633988E+01 -0.22904060816E+03  0.58064283255E+03  0.62425148886E+03  0.00000000000E+00 0.  1.
         12    1    5    5    0    0 -0.14639574102E+02 -0.30455246541E+02  0.19776674893E+03  0.20063281425E+03  0.00000000000E+00 0. -1.
        -13    1    3    3    0    0  0.81180454615E+02 -0.96821756502E+02 -0.20599148490E+04  0.20637863029E+04  0.00000000000E+00 0.  1.
         14    1    3    3    0    0 -0.12050013873E+02 -0.17907511425E+02 -0.52593415936E+03  0.52637688189E+03  0.00000000000E+00 0. -1.
          5    1    4    4  501    0  0.32432943677E+02  0.15171610997E+03  0.10071488034E+03  0.18502770328E+03  0.47000000000E+01 0. -1.
         -5    1    4    4    0  501 -0.40220797404E+02  0.27673990948E+03  0.37034832272E+02  0.28212826666E+03  0.47000000000E+01 0. -1.
          1    1    1    2  502    0 -0.27728261727E+02 -0.56385265344E+02  0.12593785605E+04  0.12609450874E+04  0.00000000000E+00 0. -1.
          1    1    1    2  503    0 -0.97974877868E+01  0.21543685245E+01 -0.29921158427E+03  0.29937969909E+03  0.00000000000E+00 0. -1.
<mgrwt>
<rscale>  0 0.25106431E+02</rscale>
<asrwt>0</asrwt>
<pdfrwt beam="1">  1        2 0.34801511E+00 0.62835017E+02</pdfrwt>
<pdfrwt beam="2">  1        2 0.45235669E+00 0.10031554E+02</pdfrwt>
<totfact> 0.40848410E+00</totfact>
</mgrwt>
</event>
<event>
13    1  0.1595792E-008  0.1008464E+03  0.7546771E-02  0.1374735E+00
          2   -1    0    0  503    0  0.00000000000E+00  0.00000000000E+00  0.24675622158E+04  0.24675622158E+04  0.00000000000E+00 0. -1.
          2   -1    0    0  502    0 -0.00000000000E+00 -0.00000000000E+00 -0.34075233325E+04  0.34075233325E+04  0.00000000000E+00 0. -1.
         24    2    1    2    0    0  0.11039402357E+01  0.41758815575E+02 -0.75920290981E+02  0.11802495390E+03  0.80131028940E+02 0.  0.
         25    2    1    2    0    0 -0.43229487440E+02  0.19075906686E+03 -0.56045328692E+03  0.60662673731E+03  0.12502120388E+03 0.  0.
         24    2    1    2    0    0 -0.48469590672E+02 -0.30525014350E+03  0.61467225058E+03  0.69259749409E+03  0.79638946875E+02 0.  0.
        -11    1    5    5    0    0  0.33707204517E+01 -0.47530382778E+02  0.16478166151E+03  0.17153278116E+03  0.00000000000E+00 0.  1.
         12    1    5    5    0    0 -0.51840311124E+02 -0.25771976072E+03  0.44989058907E+03  0.52106471293E+03  0.00000000000E+00 0. -1.
        -13    1    3    3    0    0  0.95228899690E+01  0.62415218217E+02 -0.71315682974E+02  0.95248472620E+02  0.00000000000E+00 0.  1.
         14    1    3    3    0    0 -0.84189497333E+01 -0.20656402642E+02 -0.46046080064E+01  0.22776481283E+02  0.00000000000E+00 0. -1.
          5    1    4    4  501    0 -0.85748192859E+02  0.14078507691E+03 -0.36858095962E+03  0.40379104034E+03  0.47000000000E+01 0. -1.
         -5    1    4    4    0  501  0.42518705419E+02  0.49973989947E+02 -0.19187232730E+03  0.20283569697E+03  0.47000000000E+01 0. -1.
          1    1    1    2  502    0 -0.56108585916E+01  0.42654520704E+02 -0.26864404666E+04  0.26867849319E+04  0.00000000000E+00 0. -1.
          1    1    1    2  503    0  0.96205996468E+02  0.30077740362E+02  0.17681806772E+04  0.17710514311E+04  0.00000000000E+00 0. -1.
<mgrwt>
<rscale>  0 0.65868119E+02</rscale>
<asrwt>0</asrwt>
<pdfrwt beam="1">  1        2 0.36287680E+00 0.10084636E+03</pdfrwt>
<pdfrwt beam="2">  1        2 0.50110637E+00 0.43021970E+02</pdfrwt>
<totfact> 0.16982507E+00</totfact>
</mgrwt>
</event>
<event>
13    1  0.1595792E-008  0.1950299E+03  0.7546771E-02  0.1357498E+00
          2   -1    0    0  502    0  0.00000000000E+00  0.00000000000E+00  0.17220654819E+04  0.17220654819E+04  0.00000000000E+00 0. -1.
          2   -1    0    0  503    0 -0.00000000000E+00 -0.00000000000E+00 -0.31094491943E+04  0.31094491943E+04  0.00000000000E+00 0. -1.
         24    2    1    2    0    0  0.93970557408E+01  0.43155025041E+02 -0.56468696074E+02  0.10459347502E+03  0.76160491967E+02 0.  0.
         25    2    1    2    0    0  0.49074645216E+02  0.13856813424E+03  0.35783600721E+03  0.40654556513E+03  0.12499295917E+03 0.  0.
         24    2    1    2    0    0 -0.40790057182E+02  0.33529104689E+02  0.19790370175E+03  0.21936796396E+03  0.78539154683E+02 0.  0.
        -13    1    3    3    0    0 -0.75631845495E+01  0.55088546306E+02 -0.14013243483E+02  0.57343880995E+02  0.00000000000E+00 0.  1.
         14    1    3    3    0    0  0.16960240290E+02 -0.11933521265E+02 -0.42455452590E+02  0.47249594021E+02  0.00000000000E+00 0. -1.
        -13    1    5    5    0    0 -0.29024750125E+01  0.51791578537E+02  0.12243882376E+03  0.13297389793E+03  0.00000000000E+00 0.  1.
         14    1    5    5    0    0 -0.37887582169E+02 -0.18262473848E+02  0.75464877998E+02  0.86394066028E+02  0.00000000000E+00 0. -1.
          5    1    4    4  501    0 -0.91140670159E+01 -0.20032230955E+02  0.60288182442E+02  0.64351468024E+02  0.47000000000E+01 0.  1.
         -5    1    4    4    0  501  0.58188712232E+02  0.15860036520E+03  0.29754782477E+03  0.34219409711E+03  0.47000000000E+01 0.  1.
          1    1    1    2  502    0 -0.16402610708E+02 -0.19758138597E+02  0.11038354564E+04  0.11041341153E+04  0.00000000000E+00 0. -1.
          1    1    1    2  503    0 -0.12790330673E+01 -0.19549412537E+03 -0.29904901817E+04  0.29968735569E+04  0.00000000000E+00 0. -1.
<mgrwt>
<rscale>  0 0.70768938E+02</rscale>
<asrwt>0</asrwt>
<pdfrwt beam="1">  1        2 0.25324493E+00 0.25679363E+02</pdfrwt>
<pdfrwt beam="2">  1        2 0.45727194E+00 0.19502986E+03</pdfrwt>
<totfact> 0.50509595E+00</totfact>
</mgrwt>
</event>
<event>
13    1  0.1595792E-008  0.4550408E+02  0.7546771E-02  0.1601524E+00
          2   -1    0    0  503    0  0.00000000000E+00  0.00000000000E+00  0.15274168455E+04  0.15274168455E+04  0.00000000000E+00 0. -1.
          2   -1    0    0  502    0 -0.00000000000E+00 -0.00000000000E+00 -0.15660373417E+04  0.15660373417E+04  0.00000000000E+00 0. -1.
         24    2    1    2    0    0 -0.98648234040E+01  0.28495461115E+02 -0.46136051020E+03  0.46899916844E+03  0.78723526227E+02 0.  0.
         25    2    1    2    0    0  0.88682780027E+01 -0.93366080844E+02  0.23163154879E+03  0.27941828145E+03  0.12500212081E+03 0.  0.
         24    2    1    2    0    0  0.21819332880E+02  0.22970997298E+02  0.14164373898E+03  0.16632379579E+03  0.81221341097E+02 0.  0.
        -11    1    5    5    0    0  0.39889207650E+02 -0.14776641747E+02  0.50479820467E+02  0.66012955567E+02  0.00000000000E+00 0.  1.
         12    1    5    5    0    0 -0.18069874770E+02  0.37747639045E+02  0.91163918514E+02  0.10031084022E+03  0.00000000000E+00 0. -1.
        -13    1    3    3    0    0  0.33020728537E+02  0.10005209508E+02 -0.13621958049E+03  0.14052133944E+03  0.00000000000E+00 0.  1.
         14    1    3    3    0    0 -0.42885551941E+02  0.18490251607E+02 -0.32514092971E+03  0.32847782899E+03  0.00000000000E+00 0. -1.
          5    1    4    4  501    0 -0.40286286261E+02 -0.13401752632E+02  0.14653820596E+03  0.15263724198E+03  0.47000000000E+01 0.  1.
         -5    1    4    4    0  501  0.49154564263E+02 -0.79964328212E+02  0.85093342827E+02  0.12678103946E+03  0.47000000000E+01 0.  1.
          1    1    1    2  502    0 -0.17812862195E+01  0.45472517631E+02 -0.10640535019E+04  0.10650261864E+04  0.00000000000E+00 0. -1.
          1    1    1    2  503    0 -0.19041501259E+02 -0.35728952007E+01  0.11135182280E+04  0.11136867551E+04  0.00000000000E+00 0. -1.
<mgrwt>
<rscale>  0 0.29691534E+02</rscale>
<asrwt>0</asrwt>
<pdfrwt beam="1">  1        2 0.22462013E+00 0.19373806E+02</pdfrwt>
<pdfrwt beam="2">  1        2 0.23029961E+00 0.45504079E+02</pdfrwt>
<totfact> 0.44195660E+01</totfact>
</mgrwt>
</event>
<event>
13    1  0.1595792E-008  0.4535581E+02  0.7546771E-02  0.1559740E+00
          2   -1    0    0  502    0  0.00000000000E+00  0.00000000000E+00  0.97102559619E+03  0.97102559619E+03  0.00000000000E+00 0. -1.
          2   -1    0    0  503    0 -0.00000000000E+00 -0.00000000000E+00 -0.67130684108E+03  0.67130684108E+03  0.00000000000E+00 0. -1.
         24    2    1    2    0    0  0.13602098062E+02 -0.12877308534E+02 -0.33006390266E+02  0.90541637517E+02  0.82204161568E+02 0.  0.
         25    2    1    2    0    0  0.96701584258E+02 -0.37208527269E+02 -0.99185230097E+02  0.19025939892E+03  0.12500103242E+03 0.  0.
         24    2    1    2    0    0 -0.50015523702E+02  0.68160704395E+02  0.76204698958E+02  0.13809168576E+03  0.78196696206E+02 0.  0.
        -11    1    3    3    0    0 -0.32321886431E+01 -0.30586183942E+02  0.16813897146E+02  0.35052372656E+02  0.00000000000E+00 0.  1.
         12    1    3    3    0    0  0.16834286705E+02  0.17708875408E+02 -0.49820287412E+02  0.55489264862E+02  0.00000000000E+00 0. -1.
        -13    1    5    5    0    0 -0.58348706814E+02  0.43614672331E+02  0.18995535972E+02  0.75283740717E+02  0.00000000000E+00 0.  1.
         14    1    5    5    0    0  0.83331831116E+01  0.24546032064E+02  0.57209162986E+02  0.62807945042E+02  0.00000000000E+00 0. -1.
          5    1    4    4  501    0 -0.20186918011E+02  0.16453151089E+02 -0.41500681554E+02  0.49220061042E+02  0.47000000000E+01 0. -1.
         -5    1    4    4    0  501  0.11688850227E+03 -0.53661678358E+02 -0.57684548544E+02  0.14103933787E+03  0.47000000000E+01 0. -1.
          1    1    1    2  502    0 -0.45268552548E+02  0.21022258458E+01  0.78855703064E+03  0.78985812129E+03  0.00000000000E+00 0. -1.
          1    1    1    2  503    0 -0.15019606070E+02 -0.20177094438E+02 -0.43285135412E+03  0.43358159378E+03  0.00000000000E+00 0. -1.
<mgrwt>
<rscale>  0 0.33776649E+02</rscale>
<asrwt>0</asrwt>
<pdfrwt beam="1">  1        2 0.14279788E+00 0.45355812E+02</pdfrwt>
<pdfrwt beam="2">  1        2 0.98721594E-01 0.25153602E+02</pdfrwt>
<totfact> 0.24407563E+02</totfact>
</mgrwt>
</event>
<event>
13    1  0.1595792E-008  0.4428947E+02  0.7546771E-02  0.1557938E+00
          2   -1    0    0  502    0  0.00000000000E+00  0.00000000000E+00  0.11799678956E+04  0.11799678956E+04  0.00000000000E+00 0. -1.
          2   -1    0    0  503    0 -0.00000000000E+00 -0.00000000000E+00 -0.33482804922E+04  0.33482804922E+04  0.00000000000E+00 0. -1.
         24    2    1    2    0    0  0.86621629055E+01  0.22782651723E+02 -0.28563800025E+02  0.87566027695E+02  0.79106486767E+02 0.  0.
         25    2    1    2    0    0 -0.66272037763E+02 -0.92454416326E+02 -0.51316663602E+03  0.54028332058E+03  0.12500507224E+03 0.  0.
         24    2    1    2    0    0  0.39422824126E+02  0.22709858235E+02  0.88896525147E+02  0.12868541448E+03  0.81163088855E+02 0.  0.
        -13    1    3    3    0    0  0.22609654709E+02 -0.11834375845E+02 -0.40943316947E+02  0.48245249925E+02  0.00000000000E+00 0.  1.
         14    1    3    3    0    0 -0.13947491804E+02  0.34617027568E+02  0.12379516921E+02  0.39320777770E+02  0.00000000000E+00 0. -1.
        -13    1    5    5    0    0  0.18177897285E+02  0.47010497445E+02  0.23195769744E+02  0.55483930590E+02  0.00000000000E+00 0.  1.
         14    1    5    5    0    0  0.21244926841E+02 -0.24300639210E+02  0.65700755403E+02  0.73201483886E+02  0.00000000000E+00 0. -1.
          5    1    4    4  501    0  0.18230927665E+02 -0.73077118487E+02 -0.16473316005E+03  0.18119529792E+03  0.47000000000E+01 0. -1.
         -5    1    4    4    0  501 -0.84502965428E+02 -0.19377297839E+02 -0.34843347597E+03  0.35908802265E+03  0.47000000000E+01 0. -1.
          1    1    1    2  502    0  0.35039565643E+02  0.27090001381E+02  0.10275785702E+04  0.10285326233E+04  0.00000000000E+00 0. -1.
          1    1    1    2  503    0 -0.16852514912E+02  0.19871904987E+02 -0.27430572558E+04  0.27431810018E+04  0.00000000000E+00 0. -1.
<mgrwt>
<rscale>  0 0.33970481E+02</rscale>
<asrwt>0</asrwt>
<pdfrwt beam="1">  1        2 0.17352469E+00 0.44289474E+02</pdfrwt>
<pdfrwt beam="2">  1        2 0.49239419E+00 0.26055707E+02</pdfrwt>
<totfact> 0.91771815E+00</totfact>
</mgrwt>
</event>
<event>
13    1  0.1595792E-008  0.1137645E+03  0.7546771E-02  0.1267047E+00
         -1   -1    0    0    0  501 -0.00000000000E+00  0.00000000000E+00  0.86326322408E+03  0.86326322408E+03  0.00000000000E+00 0.  1.
          2   -1    0    0  503    0  0.00000000000E+00 -0.00000000000E+00 -0.12170946610E+04  0.12170946610E+04  0.00000000000E+00 0. -1.
         24    2    1    2    0    0  0.63254060512E+02 -0.65831682112E+02 -0.46626238877E+02  0.13005007580E+03  0.80025805362E+02 0.  0.
         25    2    1    2    0    0  0.42743025039E+02 -0.22095289626E+03  0.58920279574E+02  0.26409109043E+03  0.12500142457E+03 0.  0.
         24    2    1    2    0    0  0.26075497998E+02  0.12981639422E+03 -0.14484365201E+03  0.21234008531E+03  0.81095009062E+02 0.  0.
        -11    1    5    5    0    0 -0.19244787598E+02  0.36045298441E+02 -0.79510703842E+02  0.89395623018E+02  0.00000000000E+00 0.  1.
         12    1    5    5    0    0  0.45320285596E+02  0.93771095784E+02 -0.65332948173E+02  0.12294446229E+03  0.00000000000E+00 0. -1.
        -11    1    3    3    0    0  0.55667798535E+02 -0.71293067368E+02 -0.85639216925E+01  0.90856733395E+02  0.00000000000E+00 0.  1.
         12    1    3    3    0    0  0.75862619768E+01  0.54613852562E+01 -0.38062317185E+02  0.39193342409E+02  0.00000000000E+00 0. -1.
          5    1    4    4  502    0 -0.15634414079E+02 -0.15749557276E+02  0.44813830718E+02  0.50228008936E+02  0.47000000000E+01 0. -1.
         -5    1    4    4    0  502  0.58377439118E+02 -0.20520333898E+03  0.14106448856E+02  0.21386308150E+03  0.47000000000E+01 0. -1.
          1    1    1    2  503    0 -0.47936983918E+02  0.10321660924E+03 -0.83973743064E+03  0.84741405185E+03  0.00000000000E+00 0. -1.
         -2    1    1    2    0  501 -0.84135599630E+02  0.53751574908E+02  0.61845560501E+03  0.62646258172E+03  0.00000000000E+00 0.  1.
<mgrwt>
<rscale>  0 0.10657509E+03</rscale>
<asrwt>0</asrwt>
<pdfrwt beam="2">  1        2 0.17898451E+00 0.11376449E+03</pdfrwt>
<pdfrwt beam="1">  1       -1 0.12695048E+00 0.99840027E+02</pdfrwt>
<totfact> 0.15593325E+01</totfact>
</mgrwt>
</event>
<event>
13    1  0.1595792E-008  0.9437366E+02  0.7546771E-02  0.1298478E+00
          2   -1    0    0  503    0  0.00000000000E+00  0.00000000000E+00  0.64699634326E+03  0.64699634326E+03  0.00000000000E+00 0. -1.
          2   -1    0    0  502    0 -0.00000000000E+00 -0.00000000000E+00 -0.19164348163E+04  0.19164348163E+04  0.00000000000E+00 0. -1.
         24    2    1    2    0    0 -0.17832217975E+01 -0.11623317472E+03 -0.29385523371E+03  0.32534746055E+03  0.77374032637E+02 0.  0.
         25    2    1    2    0    0  0.10419324640E+03  0.13557341295E+03 -0.19770897694E+01  0.21181405275E+03  0.12499960466E+03 0.  0.
         24    2    1    2    0    0  0.50949704760E+02 -0.14233186152E+02 -0.55434040957E+02  0.11070815245E+03  0.79905607560E+02 0.  0.
        -11    1    3    3    0    0  0.29884836516E+02 -0.37709953973E+02 -0.15895469123E+03  0.16607750584E+03  0.00000000000E+00 0.  1.
         12    1    3    3    0    0 -0.31668058314E+02 -0.78523220748E+02 -0.13490054248E+03  0.15926995471E+03  0.00000000000E+00 0. -1.
        -13    1    5    5    0    0  0.60421568144E+02 -0.37221442914E+02 -0.40892967194E+02  0.81905045483E+02  0.00000000000E+00 0.  1.
         14    1    5    5    0    0 -0.94718633845E+01  0.22988256762E+02 -0.14541073762E+02  0.28803106969E+02  0.00000000000E+00 0. -1.
          5    1    4    4  501    0  0.10459368132E+03  0.41929327874E+02  0.22283905275E+02  0.11496333826E+03  0.47000000000E+01 0.  1.
         -5    1    4    4    0  501 -0.40043492143E+00  0.93644085076E+02 -0.24260995045E+02  0.96850714496E+02  0.47000000000E+01 0.  1.
          1    1    1    2  502    0 -0.71888084579E+02 -0.53072605955E+02 -0.14109598766E+04  0.14137865368E+04  0.00000000000E+00 0. -1.
          1    1    1    2  503    0 -0.81471644784E+02  0.47965553877E+02  0.49278776797E+03  0.50177495705E+03  0.00000000000E+00 0. -1.
<mgrwt>
<rscale>  0 0.91830864E+02</rscale>
<asrwt>0</asrwt>
<pdfrwt beam="1">  1        2 0.95146522E-01 0.94373661E+02</pdfrwt>
<pdfrwt beam="2">  1        2 0.28182865E+00 0.89356579E+02</pdfrwt>
<totfact> 0.79034483E+01</totfact>
</mgrwt>
</event>
<event>
13    1  0.1595792E-008  0.4735106E+02  0.7546771E-02  0.1515537E+00
          2   -1    0    0  503    0  0.00000000000E+00  0.00000000000E+00  0.98355195283E+03  0.98355195283E+03  0.00000000000E+00 0. -1.
          2   -1    0    0  502    0 -0.00000000000E+00 -0.00000000000E+00 -0.11672546404E+04  0.11672546404E+04  0.00000000000E+00 0. -1.
         24    2    1    2    0    0 -0.27975313629E+02 -0.45072962069E+02 -0.11762259704E+02  0.99711856787E+02  0.83605702845E+02 0.  0.
         25    2    1    2    0    0  0.45283820487E+02  0.14500628022E+02  0.96500243920E+02  0.16491960016E+03  0.12500113931E+03 0.  0.
         24    2    1    2    0    0  0.37760431374E+02  0.22339908204E+02  0.11827294040E+03  0.14956657860E+03  0.80353912955E+02 0.  0.
        -11    1    3    3    0    0 -0.47740619384E+02  0.60725153131E+00  0.28758007483E+01  0.47831012153E+02  0.00000000000E+00 0.  1.
         12    1    3    3    0    0  0.19765305755E+02 -0.45680213600E+02 -0.14638060452E+02  0.51880844634E+02  0.00000000000E+00 0. -1.
        -11    1    5    5    0    0  0.71902750263E+01  0.49795155852E+02  0.69350145481E+02  0.85677886759E+02  0.00000000000E+00 0.  1.
         12    1    5    5    0    0  0.30570156348E+02 -0.27455247648E+02  0.48922794923E+02  0.63888691844E+02  0.00000000000E+00 0. -1.
          5    1    4    4  501    0  0.14726738904E+02  0.28637336226E+02 -0.23536057505E+02  0.40162294105E+02  0.47000000000E+01 0.  1.
         -5    1    4    4    0  501  0.30557081583E+02 -0.14136708205E+02  0.12003630143E+03  0.12475730605E+03  0.47000000000E+01 0.  1.
          1    1    1    2  502    0 -0.42302364822E+02 -0.21282175788E+02 -0.10607495200E+04  0.10618059923E+04  0.00000000000E+00 0. -1.
          1    1    1    2  503    0 -0.12766573410E+02  0.29514601631E+02  0.67403590786E+03  0.67480256534E+03  0.00000000000E+00 0. -1.
<mgrwt>
<rscale>  0 0.39021611E+02</rscale>
<asrwt>0</asrwt>
<pdfrwt beam="1">  1        2 0.14463999E+00 0.32157380E+02</pdfrwt>
<pdfrwt beam="2">  1        2 0.17165509E+00 0.47351062E+02</pdfrwt>
<totfact> 0.12249316E+02</totfact>
</mgrwt>
</event>
<event>
13    1  0.1595792E-008  0.2252512E+03  0.7546771E-02  0.1404603E+00
          2   -1    0    0  503    0  0.00000000000E+00  0.00000000000E+00  0.11380364095E+04  0.11380364095E+04  0.00000000000E+00 0. -1.
          2   -1    0    0  502    0 -0.00000000000E+00 -0.00000000000E+00 -0.11068090521E+04  0.11068090521E+04  0.00000000000E+00 0. -1.
         24    2    1    2    0    0 -0.30015506558E+02  0.76092159043E+01 -0.17626084643E+03  0.19607305093E+03  0.80111949901E+02 0.  0.
         25    2    1    2    0    0  0.14732431771E+03 -0.35098416482E+02 -0.55344488752E+03  0.58724916384E+03  0.12499593388E+03 0.  0.
         24    2    1    2    0    0  0.92017467440E+02 -0.15855459948E+02 -0.12550451819E+02  0.12064203331E+03  0.75355002728E+02 0.  0.
        -11    1    3    3    0    0 -0.33850558879E+02 -0.56761323836E+01 -0.17875646896E+03  0.18202185037E+03  0.00000000000E+00 0.  1.
         12    1    3    3    0    0  0.38350523207E+01  0.13285348288E+02  0.24956225341E+01  0.14051200563E+02  0.00000000000E+00 0. -1.
        -13    1    5    5    0    0 -0.55794576622E+01 -0.21476354432E+02 -0.35266180121E+01  0.22467780979E+02  0.00000000000E+00 0.  1.
         14    1    5    5    0    0  0.97596925103E+02  0.56208944840E+01 -0.90238338065E+01  0.98174252332E+02  0.00000000000E+00 0. -1.
          5    1    4    4  501    0  0.37487435209E+02  0.23659263349E+02 -0.43482573332E+02  0.62272728576E+02  0.47000000000E+01 0. -1.
         -5    1    4    4    0  501  0.10983688251E+03 -0.58757679832E+02 -0.50996231419E+03  0.52497643527E+03  0.47000000000E+01 0. -1.
          1    1    1    2  502    0  0.14260950064E+02  0.51114337150E+01 -0.27131760686E+03  0.27174021646E+03  0.00000000000E+00 0. -1.
          1    1    1    2  503    0 -0.22358722866E+03  0.38233226811E+02  0.10448011500E+04  0.10691409970E+04  0.00000000000E+00 0. -1.
<mgrwt>
<rscale>  0 0.58415740E+02</rscale>
<asrwt>0</asrwt>
<pdfrwt beam="1">  1        2 0.16735830E+00 0.22525117E+03</pdfrwt>
<pdfrwt beam="2">  1        2 0.16276604E+00 0.15149305E+02</pdfrwt>
<totfact> 0.10461959E+02</totfact>
</mgrwt>
</event>
<event>
13    1  0.1595792E-008  0.1408209E+03  0.7546771E-02  0.1265755E+00
          2   -1    0    0  503    0  0.00000000000E+00  0.00000000000E+00  0.31091460703E+04  0.31091460703E+04  0.00000000000E+00 0. -1.
          2   -1    0    0  502    0 -0.00000000000E+00 -0.00000000000E+00 -0.38682218148E+03  0.38682218148E+03  0.00000000000E+00 0. -1.
         24    2    1    2    0    0 -0.51553352382E+02 -0.28566513204E+02 -0.72662533610E+01  0.10137658819E+03  0.82162159026E+02 0.  0.
         25    2    1    2    0    0 -0.26297366654E+03  0.12636619463E+02  0.46852148658E+03  0.55177162998E+03  0.12499885927E+03 0.  0.
         24    2    1    2    0    0  0.76903305722E+02 -0.30273778566E+02  0.49115863860E+02  0.12582727958E+03  0.81175834479E+02 0.  0.
        -11    1    5    5    0    0  0.26553693334E+02  0.20456519093E+02  0.42383136400E+02  0.54036081041E+02  0.00000000000E+00 0.  1.
         12    1    5    5    0    0  0.50349612388E+02 -0.50730297659E+02  0.67327274591E+01  0.71791198536E+02  0.00000000000E+00 0. -1.
        -13    1    3    3    0    0  0.17099976030E+01  0.20589971516E+02  0.15024729762E+02  0.25546301557E+02  0.00000000000E+00 0.  1.
         14    1    3    3    0    0 -0.53263349985E+02 -0.49156484720E+02 -0.22290983123E+02  0.75830286629E+02  0.00000000000E+00 0. -1.
          5    1    4    4  501    0 -0.16316100849E+03 -0.48817771639E+02  0.31981344823E+03  0.36236365876E+03  0.47000000000E+01 0. -1.
         -5    1    4    4    0  501 -0.99812658043E+02  0.61454391103E+02  0.14870803836E+03  0.18940797122E+03  0.47000000000E+01 0. -1.
          1    1    1    2  502    0  0.10242556903E+03  0.39214136754E+02 -0.23865425726E+03  0.26264919611E+03  0.00000000000E+00 0. -1.
          1    1    1    2  503    0  0.13519814417E+03  0.69895355528E+01  0.24506070490E+04  0.24543435580E+04  0.00000000000E+00 0. -1.
<mgrwt>
<rscale>  0 0.10724679E+03</rscale>
<asrwt>0</asrwt>
<pdfrwt beam="1">  1        2 0.45722735E+00 0.14082094E+03</pdfrwt>
<pdfrwt beam="2">  1        2 0.56885617E-01 0.81677304E+02</pdfrwt>
<totfact> 0.32466416E+01</totfact>
</mgrwt>
</event>
<event>
13    1  0.1595792E-008  0.8903275E+02  0.7546771E-02  0.1384818E+00
          2   -1    0    0  502    0  0.00000000000E+00  0.00000000000E+00  0.27661267240E+04  0.27661267240E+04  0.00000000000E+00 0. -1.
          4   -1    0    0  503    0 -0.00000000000E+00 -0.00000000000E+00 -0.11829543408E+04  0.11829543408E+04  0.00000000000E+00 0. -1.
         24    2    1    2    0    0 -0.32672519134E+02 -0.17701971132E+03  0.10438673958E+03  0.22429293301E+03  0.83709358462E+02 0.  0.
         25    2    1    2    0    0  0.90634660019E+02  0.14993672810E+03 -0.15264575421E+02  0.21576319847E+03  0.12500034609E+03 0.  0.
         24    2    1    2    0    0  0.49647760025E+02 -0.10854784639E+02  0.65028929301E+03  0.65724631549E+03  0.80708290782E+02 0.  0.
        -13    1    5    5    0    0  0.26115073046E+02  0.34774363712E+02  0.26349910904E+03  0.26706372625E+03  0.00000000000E+00 0.  1.
         14    1    5    5    0    0  0.23532686979E+02 -0.45629148352E+02  0.38679018397E+03  0.39018258924E+03  0.00000000000E+00 0. -1.
        -13    1    3    3    0    0 -0.18121259040E+02 -0.55989729566E+02 -0.68757134987E+01  0.59249517147E+02  0.00000000000E+00 0.  1.
         14    1    3    3    0    0 -0.14551260094E+02 -0.12102998175E+03  0.11126245307E+03  0.16504341586E+03  0.00000000000E+00 0. -1.
          5    1    4    4  501    0  0.95187788757E+02  0.11431252248E+03 -0.58010522470E+02  0.15973533936E+03  0.47000000000E+01 0.  1.
         -5    1    4    4    0  501 -0.45531287378E+01  0.35624205619E+02  0.42745947049E+02  0.56027859110E+02  0.47000000000E+01 0.  1.
          1    1    1    2  502    0 -0.40016417603E+02 -0.20325557352E+02  0.18455134653E+04  0.18460591520E+04  0.00000000000E+00 0. -1.
          3    1    1    2  503    0 -0.67593483306E+02  0.58263325216E+02 -0.10017525393E+04  0.10057194658E+04  0.00000000000E+00 0. -1.
<mgrwt>
<rscale>  0 0.63214046E+02</rscale>
<asrwt>0</asrwt>
<pdfrwt beam="1">  1        2 0.40678334E+00 0.44882535E+02</pdfrwt>
<pdfrwt beam="2">  1        4 0.17396387E+00 0.89032751E+02</pdfrwt>
<totfact> 0.48980884E-01</totfact>
</mgrwt>
</event>
<event>
13    1  0.1595792E-008  0.5567385E+02  0.7546771E-02  0.1627058E+00
          2   -1    0    0  502    0  0.00000000000E+00  0.00000000000E+00  0.52123752256E+03  0.52123752256E+03  0.00000000000E+00 0. -1.
          2   -1    0    0  503    0 -0.00000000000E+00 -0.00000000000E+00 -0.48494820372E+03  0.48494820372E+03  0.00000000000E+00 0. -1.
         24    2    1    2    0    0  0.11703740688E+02  0.47606943593E+02 -0.10991356040E+03  0.14455326913E+03  0.80070333041E+02 0.  0.
         25    2    1    2    0    0 -0.52017044958E+02 -0.51312342865E+02  0.75186932680E+01  0.14498120800E+03  0.12499716168E+03 0.  0.
         24    2    1    2    0    0  0.22186196983E+00  0.49314812898E+02  0.31002210327E+02  0.10012066294E+03  0.81431014410E+02 0.  0.
        -11    1    5    5    0    0 -0.31140098880E+02  0.28059037411E+02 -0.11219963062E+02  0.43392429176E+02  0.00000000000E+00 0.  1.
         12    1    5    5    0    0  0.31361960850E+02  0.21255775486E+02  0.42222173388E+02  0.56728233760E+02  0.00000000000E+00 0. -1.
        -13    1    3    3    0    0  0.30272155515E+02 -0.10094915845E+02 -0.50065944930E+02  0.59370948848E+02  0.00000000000E+00 0.  1.
         14    1    3    3    0    0 -0.18568414826E+02  0.57701859439E+02 -0.59847615468E+02  0.85182320285E+02  0.00000000000E+00 0. -1.
          5    1    4    4  501    0 -0.14453694709E+02 -0.76570379866E+02  0.41289279156E+02  0.88310967251E+02  0.47000000000E+01 0. -1.
         -5    1    4    4    0  501 -0.37563350250E+02  0.25258037001E+02 -0.33770585888E+02  0.56670240747E+02  0.47000000000E+01 0. -1.
          1    1    1    2  502    0  0.26838380114E+02 -0.48739404741E+02  0.35978406000E+03  0.36406098123E+03  0.00000000000E+00 0. -1.
          1    1    1    2  503    0  0.13253062186E+02  0.31299911150E+01 -0.25210208436E+03  0.25246960498E+03  0.00000000000E+00 0. -1.
<mgrwt>
<rscale>  0 0.27534475E+02</rscale>
<asrwt>0</asrwt>
<pdfrwt beam="1">  1        2 0.76652577E-01 0.55673854E+02</pdfrwt>
<pdfrwt beam="2">  1        2 0.71315912E-01 0.13617654E+02</pdfrwt>
<totfact> 0.68779755E+02</totfact>
</mgrwt>
</event>
<event>
13    1  0.1595792E-008  0.2253337E+03  0.7546771E-02  0.1194296E+00
          2   -1    0    0  503    0  0.00000000000E+00  0.00000000000E+00  0.18537437258E+04  0.18537437258E+04  0.00000000000E+00 0. -1.
          2   -1    0    0  502    0 -0.00000000000E+00 -0.00000000000E+00 -0.22909388215E+04  0.22909388215E+04  0.00000000000E+00 0. -1.
         24    2    1    2    0    0 -0.11115177741E+03  0.14652182039E-01 -0.89167267321E+02  0.16374048040E+03  0.80656218133E+02 0.  0.
         25    2    1    2    0    0 -0.11315778123E+03  0.23320747252E+03  0.17931199555E+03  0.33906968477E+03  0.12500020277E+03 0.  0.
         24    2    1    2    0    0  0.20809650402E+03 -0.94783887534E+02  0.50732764352E+03  0.56230430143E+03  0.80725765445E+02 0.  0.
        -11    1    3    3    0    0 -0.42475709301E+02 -0.39284565629E+02 -0.31929456399E+02  0.66082926412E+02  0.00000000000E+00 0.  1.
         12    1    3    3    0    0 -0.68676068113E+02  0.39299217811E+02 -0.57237810922E+02  0.97657553989E+02  0.00000000000E+00 0. -1.
        -11    1    5    5    0    0 -0.94243357052E+00 -0.20658743620E+02  0.45544125855E+02  0.50019388930E+02  0.00000000000E+00 0.  1.
         12    1    5    5    0    0  0.20903893759E+03 -0.74125143913E+02  0.46178351767E+03  0.51228491250E+03  0.00000000000E+00 0. -1.
          5    1    4    4  501    0 -0.11407039831E+03  0.19457777804E+03  0.19392473150E+03  0.29749194773E+03  0.47000000000E+01 0.  1.
         -5    1    4    4    0  501  0.91261707964E+00  0.38629694479E+02 -0.14612735952E+02  0.41577737041E+02  0.47000000000E+01 0.  1.
          1    1    1    2  502    0 -0.92646094990E+02  0.53156180278E+02 -0.20438338566E+04  0.20466230018E+04  0.00000000000E+00 0. -1.
          1    1    1    2  503    0  0.10885914961E+03 -0.19159441745E+03  0.10091663890E+04  0.10329450789E+04  0.00000000000E+00 0. -1.
<mgrwt>
<rscale>  0 0.15514000E+03</rscale>
<asrwt>0</asrwt>
<pdfrwt beam="1">  1        2 0.27260937E+00 0.22533366E+03</pdfrwt>
<pdfrwt beam="2">  1        2 0.33690276E+00 0.10681235E+03</pdfrwt>
<totfact> 0.10234665E+01</totfact>
</mgrwt>
</event>
<event>
13    1  0.1595792E-008  0.1168894E+03  0.7546771E-02  0.1297927E+00
          2   -1    0    0  502    0  0.00000000000E+00  0.00000000000E+00  0.13682842896E+04  0.13682842896E+04  0.00000000000E+00 0. -1.
          2   -1    0    0  503    0 -0.00000000000E+00 -0.00000000000E+00 -0.62940267815E+03  0.62940267815E+03  0.00000000000E+00 0. -1.
         24    2    1    2    0    0 -0.25153678906E+02 -0.13529282044E+03 -0.12184517909E+03  0.20017085315E+03  0.79279681864E+02 0.  0.
         25    2    1    2    0    0  0.14204478418E+03  0.97938578210E+02 -0.92337595006E+02  0.23221166780E+03  0.12500936523E+03 0.  0.
         24    2    1    2    0    0  0.55207964233E+02  0.24798456272E+02  0.14830914830E+02  0.10271227227E+03  0.81651528406E+02 0.  0.
        -11    1    5    5    0    0 -0.16003806289E+02 -0.71554941437E+01 -0.10762801356E+02  0.20570872738E+02  0.00000000000E+00 0.  1.
         12    1    5    5    0    0  0.71211770523E+02  0.31953950416E+02  0.25593716186E+02  0.82141399527E+02  0.00000000000E+00 0. -1.
        -11    1    3    3    0    0 -0.44748487158E+02 -0.43206473029E+02 -0.66059879133E+02  0.90736619099E+02  0.00000000000E+00 0.  1.
         12    1    3    3    0    0  0.19594808252E+02 -0.92086347413E+02 -0.55785299959E+02  0.10943423405E+03  0.00000000000E+00 0. -1.
          5    1    4    4  501    0  0.72082426048E+02  0.77316143572E+02 -0.11443354321E+03  0.15585502242E+03  0.47000000000E+01 0. -1.
         -5    1    4    4    0  501  0.69962358135E+02  0.20622434638E+02  0.22095948204E+02  0.76356645377E+02  0.47000000000E+01 0. -1.
          1    1    1    2  502    0 -0.11317297314E+03 -0.29702620437E+02  0.11924803935E+04  0.11982069339E+04  0.00000000000E+00 0. -1.
          1    1    1    2  503    0 -0.58926096368E+02  0.42258406397E+02 -0.25424692278E+03  0.26438524067E+03  0.00000000000E+00 0. -1.
<mgrwt>
<rscale>  0 0.92064861E+02</rscale>
<asrwt>0</asrwt>
<pdfrwt beam="1">  1        2 0.20121828E+00 0.11688940E+03</pdfrwt>
<pdfrwt beam="2">  1        2 0.92559217E-01 0.72512466E+02</pdfrwt>
<totfact> 0.14878038E+02</totfact>
</mgrwt>
</event>
<event>
13    1  0.1595792E-008  0.1429634E+03  0.7546771E-02  0.1250638E+00
          2   -1    0    0  503    0  0.00000000000E+00  0.00000000000E+00  0.21526495491E+04  0.21526495491E+04  0.00000000000E+00 0. -1.
          2   -1    0    0  502    0 -0.00000000000E+00 -0.00000000000E+00 -0.11416022555E+04  0.11416022555E+04  0.00000000000E+00 0. -1.
         24    2    1    2    0    0 -0.85150722354E+02  0.53960813343E+02 -0.28549706998E+03  0.31296769955E+03  0.79232500266E+02 0.  0.
         25    2    1    2    0    0  0.37646575540E+03 -0.72693312795E+02  0.43515652458E+03  0.59329537193E+03  0.12500965865E+03 0.  0.
         24    2    1    2    0    0 -0.25319269185E+03  0.85642604335E+02  0.86696807044E+03  0.91067065218E+03  0.79032946852E+02 0.  0.
        -11    1    3    3    0    0 -0.62061349515E+02  0.74333426786E+02 -0.22880830795E+03  0.24845585368E+03  0.00000000000E+00 0.  1.
         12    1    3    3    0    0 -0.23089372839E+02 -0.20372613442E+02 -0.56688762032E+02  0.64511845868E+02  0.00000000000E+00 0. -1.
        -13    1    5    5    0    0 -0.62979873065E+02  0.97779882639E+01  0.32745532415E+03  0.33360015404E+03  0.00000000000E+00 0.  1.
         14    1    5    5    0    0 -0.19021281879E+03  0.75864616071E+02  0.53951274630E+03  0.57707049814E+03  0.00000000000E+00 0. -1.
          5    1    4    4  501    0  0.32147232285E+03 -0.17454097846E+02  0.31833536980E+03  0.45277875122E+03  0.47000000000E+01 0. -1.
         -5    1    4    4    0  501  0.54993432549E+02 -0.55239214949E+02  0.11682115478E+03  0.14051662071E+03  0.47000000000E+01 0. -1.
          1    1    1    2  502    0  0.93188138049E+02 -0.59838212234E+01 -0.73133261815E+03  0.73727012252E+03  0.00000000000E+00 0. -1.
          1    1    1    2  503    0 -0.13131047924E+03 -0.60926283661E+02  0.72575238673E+03  0.74004795848E+03  0.00000000000E+00 0. -1.
<mgrwt>
<rscale>  0 0.11554189E+03</rscale>
<asrwt>0</asrwt>
<pdfrwt beam="1">  1        2 0.31656611E+00 0.14296337E+03</pdfrwt>
<pdfrwt beam="2">  1        2 0.16788268E+00 0.93380058E+02</pdfrwt>
<totfact> 0.28470287E+01</totfact>
</mgrwt>
</event>
<event>
13    1  0.1595792E-008  0.2890870E+03  0.7546771E-02  0.1235084E+00
          2   -1    0    0  503    0  0.00000000000E+00  0.00000000000E+00  0.98174915855E+03  0.98174915855E+03  0.00000000000E+00 0. -1.
          2   -1    0    0  502    0 -0.00000000000E+00 -0.00000000000E+00 -0.22842292260E+04  0.22842292260E+04  0.00000000000E+00 0. -1.
         24    2    1    2    0    0 -0.76336941169E+01  0.43776784144E+02 -0.34185292130E+03  0.35266852726E+03  0.74410954838E+02 0.  0.
         25    2    1    2    0    0  0.83483888498E+02 -0.17514509480E+03 -0.98572146700E+02  0.25097183784E+03  0.12500012565E+03 0.  0.
         24    2    1    2    0    0 -0.20642618234E+03 -0.18607385158E+03 -0.16548188350E+03  0.33463696394E+03  0.85804410583E+02 0.  0.
        -13    1    3    3    0    0 -0.38384907990E+02  0.26489224037E+02 -0.24920704335E+03  0.25353349011E+03  0.00000000000E+00 0.  1.
         14    1    3    3    0    0  0.30751213873E+02  0.17287560107E+02 -0.92645877949E+02  0.99135037146E+02  0.00000000000E+00 0. -1.
        -13    1    5    5    0    0 -0.25275157999E+02 -0.48059853324E+02 -0.67726498220E+02  0.86807037011E+02  0.00000000000E+00 0.  1.
         14    1    5    5    0    0 -0.18115102434E+03 -0.13801399825E+03 -0.97755385282E+02  0.24782992693E+03  0.00000000000E+00 0. -1.
          5    1    4    4  501    0  0.28368707090E+02 -0.16305234141E+03 -0.41742308012E+02  0.17074940662E+03  0.47000000000E+01 0. -1.
         -5    1    4    4    0  501  0.55115181408E+02 -0.12092753391E+02 -0.56829838688E+02  0.80222431224E+02  0.47000000000E+01 0. -1.
          1    1    1    2  502    0  0.37653274462E+02  0.38764327802E+02 -0.14851768504E+04  0.14861597220E+04  0.00000000000E+00 0. -1.
          1    1    1    2  503    0  0.92922713492E+02  0.27867783444E+03  0.78860373445E+03  0.84154133356E+03  0.00000000000E+00 0. -1.
<mgrwt>
<rscale>  0 0.12499035E+03</rscale>
<asrwt>0</asrwt>
<pdfrwt beam="1">  1        2 0.14437488E+00 0.28908704E+03</pdfrwt>
<pdfrwt beam="2">  1        2 0.33591606E+00 0.54041116E+02</pdfrwt>
<totfact> 0.32152067E+01</totfact>
</mgrwt>
</event>
<event>
13    1  0.1595792E-008  0.1395087E+03  0.7546771E-02  0.1233831E+00
          2   -1    0    0  502    0  0.00000000000E+00  0.00000000000E+00  0.21117529978E+04  0.21117529978E+04  0.00000000000E+00 0. -1.
          2   -1    0    0  503    0 -0.00000000000E+00 -0.00000000000E+00 -0.13759076702E+04  0.13759076702E+04  0.00000000000E+00 0. -1.
         24    2    1    2    0    0 -0.16298473636E+03  0.45459755049E+02 -0.60090089744E+02  0.19705404377E+03  0.81171815708E+02 0.  0.
         25    2    1    2    0    0  0.17043666143E+03 -0.19066350014E+03 -0.17653210025E+03  0.33494726020E+03  0.12499943541E+03 0.  0.
         24    2    1    2    0    0 -0.23552842839E+02 -0.11982720717E+02  0.13902755061E+03  0.16223434379E+03  0.79328434213E+02 0.  0.
        -11    1    5    5    0    0 -0.27149728581E+02  0.30246794274E+02  0.58484591518E+02  0.71220950365E+02  0.00000000000E+00 0.  1.
         12    1    5    5    0    0  0.35968857418E+01 -0.42229514991E+02  0.80542959091E+02  0.91013393424E+02  0.00000000000E+00 0. -1.
        -13    1    3    3    0    0 -0.11472986875E+02  0.23450083369E+02  0.10904940436E+02  0.28292288062E+02  0.00000000000E+00 0.  1.
         14    1    3    3    0    0 -0.15151174948E+03  0.22009671679E+02 -0.70995030180E+02  0.16876175571E+03  0.00000000000E+00 0. -1.
          5    1    4    4  501    0  0.14081132086E+03 -0.88371097319E+02 -0.15255995000E+03  0.22568541661E+03  0.47000000000E+01 0.  1.
         -5    1    4    4    0  501  0.29625340564E+02 -0.10229240282E+03 -0.23972150252E+02  0.10926184360E+03  0.47000000000E+01 0.  1.
          1    1    1    2  502    0 -0.78250032800E+02  0.22018994713E+03  0.18025816017E+04  0.18176652913E+04  0.00000000000E+00 0. -1.
          1    1    1    2  503    0  0.94350950572E+02 -0.63003481327E+02 -0.96914163466E+03  0.97575972891E+03  0.00000000000E+00 0. -1.
<mgrwt>
<rscale>  0 0.12579590E+03</rscale>
<asrwt>0</asrwt>
<pdfrwt beam="1">  1        2 0.31055191E+00 0.13950867E+03</pdfrwt>
<pdfrwt beam="2">  1        2 0.20233936E+00 0.11343100E+03</pdfrwt>
<totfact> 0.22274426E+01</totfact>
</mgrwt>
</event>
<event>
13    1  0.1595792E-008  0.7521672E+02  0.7546771E-02  0.1459203E+00
         -1   -1    0    0    0  501 -0.00000000000E+00  0.00000000000E+00  0.23389721624E+03  0.23389721624E+03  0.00000000000E+00 0.  1.
          2   -1    0    0  503    0  0.00000000000E+00 -0.00000000000E+00 -0.17429503102E+04  0.17429503102E+04  0.00000000000E+00 0. -1.
         24    2    1    2    0    0  0.30892635222E+02  0.47310270073E+02 -0.28416722371E+02  0.10221529325E+03  0.80298440201E+02 0.  0.
         25    2    1    2    0    0  0.84868869828E+02 -0.62678270045E+01 -0.89421759016E+02  0.17568969390E+03  0.12501442651E+03 0.  0.
         24    2    1    2    0    0 -0.24338642334E+02  0.93156682623E+01 -0.22061337600E+03  0.23703631780E+03  0.82684962959E+02 0.  0.
        -13    1    3    3    0    0 -0.21338717129E+02 -0.85056249811E-01 -0.23157302406E+02  0.31489819593E+02  0.00000000000E+00 0.  1.
         14    1    3    3    0    0  0.52231352352E+02  0.47395326323E+02 -0.52594199651E+01  0.70725473658E+02  0.00000000000E+00 0. -1.
        -13    1    5    5    0    0 -0.26181914756E+02 -0.93010291466E+01 -0.21598462816E+03  0.21776446314E+03  0.00000000000E+00 0.  1.
         14    1    5    5    0    0  0.18432724220E+01  0.18616697409E+02 -0.46287478426E+01  0.19271854665E+02  0.00000000000E+00 0. -1.
          5    1    4    4  502    0 -0.31273086423E+02  0.67717780394E+01 -0.31583174464E+02  0.45204533196E+02  0.47000000000E+01 0.  1.
         -5    1    4    4    0  502  0.11614195625E+03 -0.13039605044E+02 -0.57838584552E+02  0.13048516071E+03  0.47000000000E+01 0.  1.
          1    1    1    2  503    0 -0.24713097749E+02 -0.17043787885E+02 -0.13065266676E+04  0.13068715167E+04  0.00000000000E+00 0. -1.
         -2    1    1    2    0  501 -0.66709764968E+02 -0.33314323446E+02  0.13592543105E+03  0.15503470481E+03  0.00000000000E+00 0.  1.
<mgrwt>
<rscale>  0 0.47518843E+02</rscale>
<asrwt>0</asrwt>
<pdfrwt beam="2">  1        2 0.25631622E+00 0.30020458E+02</pdfrwt>
<pdfrwt beam="1">  1       -1 0.34396649E-01 0.75216722E+02</pdfrwt>
<totfact> 0.12514627E+02</totfact>
</mgrwt>
</event>
<event>
13    1  0.1595792E-008  0.1678013E+03  0.7546771E-02  0.1213842E+00
         -1   -1    0    0    0  501 -0.00000000000E+00  0.00000000000E+00  0.17395992592E+04  0.17395992592E+04  0.00000000000E+00 0.  1.
          2   -1    0    0  503    0  0.00000000000E+00 -0.00000000000E+00 -0.17162599816E+04  0.17162599816E+04  0.00000000000E+00 0. -1.
         24    2    1    2    0    0  0.19138587545E+03 -0.67789057198E+02  0.52265742964E+03  0.56630793537E+03  0.79435378138E+02 0.  0.
         25    2    1    2    0    0 -0.21183846011E+03 -0.18962522730E+03  0.49298307510E+02  0.31446634127E+03  0.12500198663E+03 0.  0.
         24    2    1    2    0    0  0.29102316639E+02 -0.52311615047E+02  0.17066653978E+02  0.10269621471E+03  0.81681037797E+02 0.  0.
        -11    1    5    5    0    0  0.18137402076E+02 -0.74364633237E+02  0.10993651116E+02  0.77329970874E+02  0.00000000000E+00 0.  1.
         12    1    5    5    0    0  0.10964914563E+02  0.22053018190E+02  0.60730028613E+01  0.25366243837E+02  0.00000000000E+00 0. -1.
        -13    1    3    3    0    0  0.19178618882E+03 -0.56712862916E+02  0.51594298212E+03  0.55334930364E+03  0.00000000000E+00 0.  1.
         14    1    3    3    0    0 -0.40031337360E+00 -0.11076194282E+02  0.67144475221E+01  0.12958631722E+02  0.00000000000E+00 0. -1.
          5    1    4    4  502    0 -0.37241016381E+01  0.58488378470E+00 -0.22660725582E+02  0.23448017101E+02  0.47000000000E+01 0.  1.
         -5    1    4    4    0  502 -0.20811435847E+03 -0.19021011109E+03  0.71959033092E+02  0.29101832417E+03  0.47000000000E+01 0.  1.
          1    1    1    2  503    0  0.58224170293E+02  0.15682750204E+03 -0.15070690593E+04  0.15163251858E+04  0.00000000000E+00 0. -1.
         -2    1    1    2    0  501 -0.66873902272E+02  0.15289839751E+03  0.94138594585E+03  0.95606356369E+03  0.00000000000E+00 0.  1.
<mgrwt>
<rscale>  0 0.13961918E+03</rscale>
<asrwt>0</asrwt>
<pdfrwt beam="2">  1        2 0.25239117E+00 0.16780131E+03</pdfrwt>
<pdfrwt beam="1">  1       -1 0.25582342E+00 0.11617022E+03</pdfrwt>
<totfact> 0.11056600E+00</totfact>
</mgrwt>
</event>
<event>
13    1  0.1595792E-008  0.2379627E+03  0.7546771E-02  0.1173292E+00
          2   -1    0    0  502    0  0.00000000000E+00  0.00000000000E+00  0.18135305424E+04  0.18135305424E+04  0.00000000000E+00 0. -1.
          2   -1    0    0  503    0 -0.00000000000E+00 -0.00000000000E+00 -0.22907428646E+04  0.22907428646E+04  0.00000000000E+00 0. -1.
         24    2    1    2    0    0 -0.42312279361E+02 -0.13960061987E+03 -0.75042473869E+02  0.18285060938E+03  0.80773203572E+02 0.  0.
         25    2    1    2    0    0 -0.82904170276E+02  0.24320724023E+03  0.22003573536E+03  0.36064247927E+03  0.12499763946E+03 0.  0.
         24    2    1    2    0    0  0.13396375386E+03 -0.24419210598E+03  0.43168646932E+02  0.29328023120E+03  0.81078295255E+02 0.  0.
        -11    1    3    3    0    0 -0.62427147506E+02 -0.12218938229E+03 -0.49215110030E+02  0.14577215422E+03  0.00000000000E+00 0.  1.
         12    1    3    3    0    0  0.20114868145E+02 -0.17411237576E+02 -0.25827363839E+02  0.37078455164E+02  0.00000000000E+00 0. -1.
        -11    1    5    5    0    0  0.13777735176E+03 -0.22344483833E+03  0.22051893977E+02  0.26343211737E+03  0.00000000000E+00 0.  1.
         12    1    5    5    0    0 -0.38135978943E+01 -0.20747267659E+02  0.21116752955E+02  0.29848113836E+02  0.00000000000E+00 0. -1.
          5    1    4    4  501    0 -0.19871986904E+02  0.21590134596E+03  0.16509581974E+03  0.27255642855E+03  0.47000000000E+01 0. -1.
         -5    1    4    4    0  501 -0.63032183372E+02  0.27305894268E+02  0.54939915623E+02  0.88086050718E+02  0.47000000000E+01 0. -1.
          1    1    1    2  502    0 -0.12172785141E+03  0.20048854606E+03  0.12883848093E+04  0.13095605154E+04  0.00000000000E+00 0. -1.
          1    1    1    2  503    0  0.11298054718E+03 -0.59903060439E+02 -0.19537590399E+04  0.19579395717E+04  0.00000000000E+00 0. -1.
<mgrwt>
<rscale>  0 0.17444307E+03</rscale>
<asrwt>0</asrwt>
<pdfrwt beam="1">  1        2 0.26669567E+00 0.23796275E+03</pdfrwt>
<pdfrwt beam="2">  1        2 0.33687395E+00 0.12787877E+03</pdfrwt>
<totfact> 0.10449454E+01</totfact>
</mgrwt>
</event>
<event>
13    1  0.1595792E-008  0.1156483E+03  0.7546771E-02  0.1298392E+00
          2   -1    0    0  503    0  0.00000000000E+00  0.00000000000E+00  0.19889229939E+04  0.19889229939E+04  0.00000000000E+00 0. -1.
          2   -1    0    0  502    0 -0.00000000000E+00 -0.00000000000E+00 -0.10440636126E+04  0.10440636126E+04  0.00000000000E+00 0. -1.
         24    2    1    2    0    0  0.61982061023E+02  0.11149742453E+02 -0.81868478444E+02  0.13138105820E+03  0.81193854724E+02 0.  0.
         25    2    1    2    0    0 -0.20248545797E+03 -0.18363191765E+03 -0.26950919207E+03  0.40369901795E+03  0.12496659800E+03 0.  0.
         24    2    1    2    0    0  0.18678839879E+02  0.10094775973E+03  0.45339945720E+03  0.47195344232E+03  0.81422568582E+02 0.  0.
        -11    1    3    3    0    0  0.80210962612E+02  0.89830323335E+01 -0.78741242116E+02  0.11275937479E+03  0.00000000000E+00 0.  1.
         12    1    3    3    0    0 -0.18228901589E+02  0.21667101199E+01 -0.31272363281E+01  0.18621683408E+02  0.00000000000E+00 0. -1.
        -13    1    5    5    0    0 -0.93213079350E+01  0.94693946623E+02  0.26894268834E+03  0.28527881085E+03  0.00000000000E+00 0.  1.
         14    1    5    5    0    0  0.28000147814E+02  0.62538131080E+01  0.18445676886E+03  0.18667463147E+03  0.00000000000E+00 0. -1.
          5    1    4    4  501    0 -0.18341575896E+03 -0.17723597766E+03 -0.28143790313E+03  0.37984643704E+03  0.47000000000E+01 0. -1.
         -5    1    4    4    0  501 -0.19069699003E+02 -0.63959399934E+01  0.11928711064E+02  0.23852580911E+02  0.47000000000E+01 0. -1.
          1    1    1    2  502    0  0.66341913400E+01  0.72673759958E+02 -0.58698178751E+03  0.59150072421E+03  0.00000000000E+00 0. -1.
          1    1    1    2  503    0  0.11519036572E+03 -0.11393444873E+01  0.14298193822E+04  0.14344523638E+04  0.00000000000E+00 0. -1.
<mgrwt>
<rscale>  0 0.91866995E+02</rscale>
<asrwt>0</asrwt>
<pdfrwt beam="1">  1        2 0.29248868E+00 0.11564832E+03</pdfrwt>
<pdfrwt beam="2">  1        2 0.15353877E+00 0.72975940E+02</pdfrwt>
<totfact> 0.40089111E+01</totfact>
</mgrwt>
</event>
<event>
13    1  0.1595792E-008  0.6441975E+02  0.7546771E-02  0.1454994E+00
          2   -1    0    0  503    0  0.00000000000E+00  0.00000000000E+00  0.41523896226E+03  0.41523896226E+03  0.00000000000E+00 0. -1.
          2   -1    0    0  502    0 -0.00000000000E+00 -0.00000000000E+00 -0.16382671401E+04  0.16382671401E+04  0.00000000000E+00 0. -1.
         24    2    1    2    0    0  0.77115999219E+02 -0.29709283984E+02 -0.45736152790E+03  0.47173432129E+03  0.80772419755E+02 0.  0.
         25    2    1    2    0    0  0.26700158373E+02 -0.16422282661E+02 -0.24464654401E+03  0.27651049519E+03  0.12499413039E+03 0.  0.
         24    2    1    2    0    0 -0.28538582894E+02  0.31663889880E+02  0.38464133498E+02  0.99901406461E+02  0.81754197514E+02 0.  0.
        -11    1    3    3    0    0  0.30536605250E+02  0.16277700254E+02 -0.62107052195E+02  0.71096650540E+02  0.00000000000E+00 0.  1.
         12    1    3    3    0    0  0.46579393969E+02 -0.45986984238E+02 -0.39525447570E+03  0.40063767075E+03  0.00000000000E+00 0. -1.
        -11    1    5    5    0    0 -0.42003817906E+02  0.52012055083E+02  0.34328797667E+02  0.75153449302E+02  0.00000000000E+00 0.  1.
         12    1    5    5    0    0  0.13465235013E+02 -0.20348165203E+02  0.41353358318E+01  0.24747957159E+02  0.00000000000E+00 0. -1.
          5    1    4    4  501    0  0.54623061695E+02  0.33655295908E+02 -0.83528250260E+02  0.10542967515E+03  0.47000000000E+01 0. -1.
         -5    1    4    4    0  501 -0.27922903323E+02 -0.50077578569E+02 -0.16111829375E+03  0.17108082004E+03  0.47000000000E+01 0. -1.
          1    1    1    2  502    0 -0.13728450709E+02  0.33436111800E+02 -0.87883565878E+03  0.87957862586E+03  0.00000000000E+00 0. -1.
          1    1    1    2  503    0 -0.61549123989E+02 -0.18968435035E+02  0.31935141930E+03  0.32578125360E+03  0.00000000000E+00 0. -1.
<mgrwt>
<rscale>  0 0.48253879E+02</rscale>
<asrwt>0</asrwt>
<pdfrwt beam="1">  1        2 0.61064553E-01 0.64419755E+02</pdfrwt>
<pdfrwt beam="2">  1        2 0.24092164E+00 0.36144764E+02</pdfrwt>
<totfact> 0.18892247E+02</totfact>
</mgrwt>
</event>
<event>
13    1  0.1595792E-008  0.1486227E+03  0.7546771E-02  0.1287773E+00
          2   -1    0    0  502    0  0.00000000000E+00  0.00000000000E+00  0.19706168475E+04  0.19706168475E+04  0.00000000000E+00 0. -1.
          2   -1    0    0  503    0 -0.00000000000E+00 -0.00000000000E+00 -0.37523759710E+04  0.37523759710E+04  0.00000000000E+00 0. -1.
         24    2    1    2    0    0 -0.20717726446E+01 -0.10030352132E+03 -0.18161351859E+04  0.18207511391E+04  0.81991514983E+02 0.  0.
         25    2    1    2    0    0  0.49298449862E+02  0.25382063719E+03 -0.17075648213E+03  0.33411887860E+03  0.12498958286E+03 0.  0.
         24    2    1    2    0    0  0.80690599087E+02 -0.10396791112E+03  0.28956032008E+03  0.32808646852E+03  0.80468953888E+02 0.  0.
        -13    1    5    5    0    0  0.39742679142E+02 -0.75150259433E+02  0.25064777296E+03  0.26467215216E+03  0.00000000000E+00 0.  1.
         14    1    5    5    0    0  0.40947919944E+02 -0.28817651690E+02  0.38912547116E+02  0.63414316363E+02  0.00000000000E+00 0. -1.
        -13    1    3    3    0    0  0.38429771666E+02 -0.57173557271E+02 -0.11137426021E+04  0.11158710708E+04  0.00000000000E+00 0.  1.
         14    1    3    3    0    0 -0.40501544310E+02 -0.43129964051E+02 -0.70239258379E+03  0.70488006828E+03  0.00000000000E+00 0. -1.
          5    1    4    4  501    0 -0.15657535686E+02  0.19642892222E+03 -0.94565295649E+02  0.21861876646E+03  0.47000000000E+01 0.  1.
         -5    1    4    4    0  501  0.64955985548E+02  0.57391714972E+02 -0.76191186480E+02  0.11550011213E+03  0.47000000000E+01 0.  1.
          1    1    1    2  502    0 -0.10242056177E+03 -0.10682281163E+03  0.15737404288E+04  0.15806834034E+04  0.00000000000E+00 0. -1.
          1    1    1    2  503    0 -0.25496714532E+02  0.57273606881E+02 -0.16581682043E+04  0.16593529288E+04  0.00000000000E+00 0. -1.
<mgrwt>
<rscale>  0 0.96527355E+02</rscale>
<asrwt>0</asrwt>
<pdfrwt beam="1">  1        2 0.28979660E+00 0.14862275E+03</pdfrwt>
<pdfrwt beam="2">  1        2 0.55181999E+00 0.62692492E+02</pdfrwt>
<totfact> 0.16612113E+00</totfact>
</mgrwt>
</event>
<event>
13    1  0.1595792E-008  0.4000760E+02  0.7546771E-02  0.1671847E+00
          2   -1    0    0  503    0  0.00000000000E+00  0.00000000000E+00  0.10351852964E+04  0.10351852964E+04  0.00000000000E+00 0. -1.
          2   -1    0    0  502    0 -0.00000000000E+00 -0.00000000000E+00 -0.69440159179E+03  0.69440159179E+03  0.00000000000E+00 0. -1.
         24    2    1    2    0    0  0.51887508917E+02 -0.15258563079E+02 -0.22053470908E+03  0.24104511555E+03  0.80882955521E+02 0.  0.
         25    2    1    2    0    0  0.41062395030E+02 -0.82618572535E+01 -0.13268289997E+02  0.13248982120E+03  0.12499250630E+03 0.  0.
         24    2    1    2    0    0 -0.70542590441E+02 -0.24528679940E+02  0.86886138917E+02  0.13812686215E+03  0.77148659773E+02 0.  0.
        -13    1    3    3    0    0 -0.79211578548E+01  0.19008159568E+02 -0.10084400110E+03  0.10292505735E+03  0.00000000000E+00 0.  1.
         14    1    3    3    0    0  0.59808666772E+02 -0.34266722647E+02 -0.11969070798E+03  0.13812005820E+03  0.00000000000E+00 0. -1.
        -13    1    5    5    0    0 -0.78597318606E+02 -0.36156011968E+02  0.88653830152E+02  0.12387210055E+03  0.00000000000E+00 0.  1.
         14    1    5    5    0    0  0.80547281651E+01  0.11627332029E+02 -0.17676912351E+01  0.14254761598E+02  0.00000000000E+00 0. -1.
          5    1    4    4  501    0  0.82775801689E+02  0.36195507059E+01 -0.26134054755E+02  0.87005823429E+02  0.47000000000E+01 0.  1.
         -5    1    4    4    0  501 -0.41713406659E+02 -0.11881407959E+02  0.12865764758E+02  0.45483997768E+02  0.47000000000E+01 0.  1.
          1    1    1    2  502    0 -0.11058795126E+02  0.97032569092E+01 -0.36449498275E+03  0.36479177978E+03  0.00000000000E+00 0. -1.
          1    1    1    2  503    0 -0.11348518381E+02  0.38345843363E+02  0.85219554753E+03  0.85313330951E+03  0.00000000000E+00 0. -1.
<mgrwt>
<rscale>  0 0.24261113E+02</rscale>
<asrwt>0</asrwt>
<pdfrwt beam="1">  1        2 0.15223313E+00 0.40007600E+02</pdfrwt>
<pdfrwt beam="2">  1        2 0.10211788E+00 0.14712245E+02</pdfrwt>
<totfact> 0.22127288E+02</totfact>
</mgrwt>
</event>
<event>
13    1  0.1595792E-008  0.5337649E+02  0.7546771E-02  0.1465775E+00
         -1   -1    0    0    0  501 -0.00000000000E+00  0.00000000000E+00  0.18804634580E+03  0.18804634580E+03  0.00000000000E+00 0.  1.
          2   -1    0    0  503    0  0.00000000000E+00 -0.00000000000E+00 -0.14578775792E+04  0.14578775792E+04  0.00000000000E+00 0. -1.
         24    2    1    2    0    0 -0.93709828411E+01  0.75531997364E+02  0.10353583962E+02  0.11076106717E+03  0.79799244071E+02 0.  0.
         25    2    1    2    0    0  0.74242548372E+02 -0.94398129279E+02 -0.67376731089E+02  0.18597481515E+03  0.12499618066E+03 0.  0.
         24    2    1    2    0    0 -0.79724799679E+02  0.18017793515E+02 -0.18786905765E+03  0.21959553774E+03  0.79036275252E+02 0.  0.
        -11    1    5    5    0    0  0.47936620472E+01 -0.20235376718E+02 -0.30455978989E+02  0.36878399137E+02  0.00000000000E+00 0.  1.
         12    1    5    5    0    0 -0.84518461727E+02  0.38253170233E+02 -0.15741307866E+03  0.18271713860E+03  0.00000000000E+00 0. -1.
        -11    1    3    3    0    0  0.31833968234E+02  0.11535299495E+02 -0.58493238037E+00  0.33864536226E+02  0.00000000000E+00 0.  1.
         12    1    3    3    0    0 -0.41204951075E+02  0.63996697869E+02  0.10938516342E+02  0.76896530943E+02  0.00000000000E+00 0. -1.
          5    1    4    4  502    0 -0.34796249454E+02 -0.14121162395E+02 -0.15587326649E+02  0.40929707493E+02  0.47000000000E+01 0.  1.
         -5    1    4    4    0  502  0.10903879783E+03 -0.80276966884E+02 -0.51789404440E+02  0.14504510766E+03  0.47000000000E+01 0.  1.
          1    1    1    2  503    0 -0.39515379139E+02  0.81086883336E+01 -0.10624026861E+04  0.10631682291E+04  0.00000000000E+00 0. -1.
         -2    1    1    2    0  501  0.54368613287E+02 -0.72603499338E+01  0.37463657443E+02  0.66424275840E+02  0.00000000000E+00 0.  1.
<mgrwt>
<rscale>  0 0.46401958E+02</rscale>
<asrwt>0</asrwt>
<pdfrwt beam="2">  1        2 0.21439377E+00 0.40338766E+02</pdfrwt>
<pdfrwt beam="1">  1       -1 0.27653873E-01 0.53376491E+02</pdfrwt>
<totfact> 0.23472378E+02</totfact>
</mgrwt>
</event>
<event>
13    1  0.1595792E-008  0.1349655E+03  0.7546771E-02  0.1270434E+00
          2   -1    0    0  503    0  0.00000000000E+00  0.00000000000E+00  0.98006853079E+03  0.98006853079E+03  0.00000000000E+00 0. -1.
          2   -1    0    0  502    0 -0.00000000000E+00 -0.00000000000E+00 -0.98229677938E+03  0.98229677938E+03  0.00000000000E+00 0. -1.
         24    2    1    2    0    0  0.12316522597E+03  0.30380226480E+02 -0.13786503936E+03  0.20406543358E+03  0.80890673468E+02 0.  0.
         25    2    1    2    0    0  0.21769659861E+02  0.82809250014E+02  0.53141479513E+02  0.16056124185E+03  0.12499842223E+03 0.  0.
         24    2    1    2    0    0 -0.67410051919E+01 -0.23727199203E+02  0.36031511331E+03  0.37014151465E+03  0.81051458073E+02 0.  0.
        -11    1    5    5    0    0 -0.11499852380E+02 -0.67808356197E+01  0.47938102337E+01  0.14184743672E+02  0.00000000000E+00 0.  1.
         12    1    5    5    0    0  0.47588471884E+01 -0.16946363583E+02  0.35552130308E+03  0.35595677098E+03  0.00000000000E+00 0. -1.
        -11    1    3    3    0    0  0.30529453466E+01  0.27908080112E+02 -0.41254308359E+02  0.49900895473E+02  0.00000000000E+00 0.  1.
         12    1    3    3    0    0  0.12011228063E+03  0.24721463683E+01 -0.96610731005E+02  0.15416453811E+03  0.00000000000E+00 0. -1.
          5    1    4    4  501    0 -0.19866355525E+02  0.92560572105E+02  0.34683551088E+01  0.94848569190E+02  0.47000000000E+01 0. -1.
         -5    1    4    4    0  501  0.41636015386E+02 -0.97513220911E+01  0.49673124404E+02  0.65712672658E+02  0.47000000000E+01 0. -1.
          1    1    1    2  502    0 -0.62018995767E+02 -0.11826812220E+03 -0.74322146758E+03  0.75512373452E+03  0.00000000000E+00 0. -1.
          1    1    1    2  503    0 -0.76174884877E+02  0.28805844913E+02  0.46540166553E+03  0.47247338557E+03  0.00000000000E+00 0. -1.
<mgrwt>
<rscale>  0 0.10484045E+03</rscale>
<asrwt>0</asrwt>
<pdfrwt beam="1">  1        2 0.14412773E+00 0.81439485E+02</pdfrwt>
<pdfrwt beam="2">  1        2 0.14445541E+00 0.13496549E+03</pdfrwt>
<totfact> 0.14060555E+02</totfact>
</mgrwt>
</event>
<event>
13    1  0.1595792E-008  0.2200494E+02  0.7546771E-02  0.1866660E+00
          2   -1    0    0  502    0  0.00000000000E+00  0.00000000000E+00  0.16414486270E+04  0.16414486270E+04  0.00000000000E+00 0. -1.
          2   -1    0    0  503    0 -0.00000000000E+00 -0.00000000000E+00 -0.11394495725E+04  0.11394495725E+04  0.00000000000E+00 0. -1.
         24    2    1    2    0    0 -0.11368249506E+03 -0.27722022663E+02 -0.27611467299E+03  0.31356048253E+03  0.91589537297E+02 0.  0.
         25    2    1    2    0    0  0.25363096466E+03 -0.46639595180E+03  0.59910567049E+02  0.54869480028E+03  0.12499143059E+03 0.  0.
         24    2    1    2    0    0 -0.13490672003E+03  0.52117997346E+03  0.82832923679E+03  0.99104981465E+03  0.78879799354E+02 0.  0.
        -13    1    3    3    0    0 -0.51502108053E+02 -0.58336091393E+02 -0.16785152951E+03  0.18501270944E+03  0.00000000000E+00 0.  1.
         14    1    3    3    0    0 -0.62180387010E+02  0.30614068730E+02 -0.10826314348E+03  0.12854777310E+03  0.00000000000E+00 0. -1.
        -13    1    5    5    0    0 -0.13576967690E+03  0.50685699087E+03  0.82236442289E+03  0.97551046043E+03  0.00000000000E+00 0.  1.
         14    1    5    5    0    0  0.86295687254E+00  0.14322982588E+02  0.59648138981E+01  0.15539354221E+02  0.00000000000E+00 0. -1.
          5    1    4    4  501    0  0.22283779845E+03 -0.39483327442E+03  0.94796755804E+02  0.46320461344E+03  0.47000000000E+01 0.  1.
         -5    1    4    4    0  501  0.30793166208E+02 -0.71562677384E+02 -0.34886188754E+02  0.85490186836E+02  0.47000000000E+01 0.  1.
          1    1    1    2  502    0  0.37293088745E+01 -0.21684777257E+02  0.40838632703E+03  0.40897864176E+03  0.00000000000E+00 0. -1.
          1    1    1    2  503    0 -0.87710584390E+01 -0.53772217432E+01 -0.51851240339E+03  0.51861446031E+03  0.00000000000E+00 0. -1.
<mgrwt>
<rscale>  0 0.15046264E+02</rscale>
<asrwt>0</asrwt>
<pdfrwt beam="1">  1        2 0.24138951E+00 0.22004940E+02</pdfrwt>
<pdfrwt beam="2">  1        2 0.16756611E+00 0.10288148E+02</pdfrwt>
<totfact> 0.69039886E+01</totfact>
</mgrwt>
</event>
<event>
13    1  0.1595792E-008  0.1019917E+03  0.7546771E-02  0.1349106E+00
         -3   -1    0    0    0  501 -0.00000000000E+00  0.00000000000E+00  0.26204594482E+04  0.26204594482E+04  0.00000000000E+00 0.  1.
          2   -1    0    0  503    0  0.00000000000E+00 -0.00000000000E+00 -0.10361015416E+04  0.10361015416E+04  0.00000000000E+00 0. -1.
         24    2    1    2    0    0  0.27582903871E+02  0.61040709620E+02  0.47275730734E+01  0.10549581269E+03  0.81364806468E+02 0.  0.
         25    2    1    2    0    0 -0.22820064146E+02 -0.14285850527E+02 -0.13436306407E+02  0.12857321084E+03  0.12500278142E+03 0.  0.
         24    2    1    2    0    0 -0.41468764250E+02  0.14088205974E+02 -0.29324942086E+03  0.30628711305E+03  0.76801281462E+02 0.  0.
        -11    1    5    5    0    0 -0.48961984315E+01  0.86143771095E+01 -0.24641053348E+03  0.24660967390E+03  0.00000000000E+00 0.  1.
         12    1    5    5    0    0 -0.36572565819E+02  0.54738288647E+01 -0.46838887373E+02  0.59677439149E+02  0.00000000000E+00 0. -1.
        -13    1    3    3    0    0  0.15989187601E+02  0.67374801579E+02 -0.24474794740E+02  0.73444084755E+02  0.00000000000E+00 0.  1.
         14    1    3    3    0    0  0.11593716270E+02 -0.63340919587E+01  0.29202367813E+02  0.32051727938E+02  0.00000000000E+00 0. -1.
          5    1    4    4  502    0 -0.62737986586E+02  0.16612036623E+02 -0.34528261899E+02  0.73663461712E+02  0.47000000000E+01 0.  1.
         -5    1    4    4    0  502  0.39917922440E+02 -0.30897887150E+02  0.21091955492E+02  0.54909749123E+02  0.47000000000E+01 0.  1.
          1    1    1    2  503    0  0.32477326795E+02  0.41541159426E+02 -0.61276211137E+03  0.61502670659E+03  0.00000000000E+00 0. -1.
         -4    1    1    2    0  501  0.42285977302E+01 -0.10238422449E+03  0.24990781721E+04  0.25011781466E+04  0.00000000000E+00 0.  1.
<mgrwt>
<rscale>  0 0.73334945E+02</rscale>
<asrwt>0</asrwt>
<pdfrwt beam="2">  1        2 0.15236787E+00 0.52729922E+02</pdfrwt>
<pdfrwt beam="1">  1       -3 0.38536169E+00 0.10199170E+03</pdfrwt>
<totfact> 0.30477188E-01</totfact>
</mgrwt>
</event>
<event>
13    1  0.1595792E-008  0.6529533E+02  0.7546771E-02  0.1475226E+00
          2   -1    0    0  503    0  0.00000000000E+00  0.00000000000E+00  0.12696223872E+04  0.12696223872E+04  0.00000000000E+00 0. -1.
          2   -1    0    0  502    0 -0.00000000000E+00 -0.00000000000E+00 -0.25964138657E+04  0.25964138657E+04  0.00000000000E+00 0. -1.
         24    2    1    2    0    0 -0.29756899041E+03  0.13799524823E+03 -0.51756691469E+03  0.61789153526E+03  0.79526382837E+02 0.  0.
         25    2    1    2    0    0 -0.29697388248E+03 -0.26087568271E+03 -0.43942970046E+03  0.60413103774E+03  0.12500496154E+03 0.  0.
         24    2    1    2    0    0  0.59849642760E+03  0.15884745102E+03  0.30498090449E+02  0.62234762688E+03  0.54368636279E+02 0.  0.
        -11    1    3    3    0    0 -0.17669298266E+03  0.72487267330E+02 -0.36884050413E+03  0.41535302038E+03  0.00000000000E+00 0.  1.
         12    1    3    3    0    0 -0.12087600775E+03  0.65507980904E+02 -0.14872641056E+03  0.20253851488E+03  0.00000000000E+00 0. -1.
        -13    1    5    5    0    0  0.63154415491E+02  0.31022584871E+02  0.13802277540E+02  0.71703443665E+02  0.00000000000E+00 0.  1.
         14    1    5    5    0    0  0.53534201211E+03  0.12782486615E+03  0.16695812908E+02  0.55064418321E+03  0.00000000000E+00 0. -1.
          5    1    4    4  501    0 -0.81122542963E+02 -0.14698085029E+02 -0.12743060938E+03  0.15184713000E+03  0.47000000000E+01 0.  1.
         -5    1    4    4    0  501 -0.21585133952E+03 -0.24617759768E+03 -0.31199909108E+03  0.45228390774E+03  0.47000000000E+01 0.  1.
          1    1    1    2  502    0  0.16358294454E+02  0.26118545131E+02 -0.12094669781E+04  0.12098595552E+04  0.00000000000E+00 0. -1.
          1    1    1    2  503    0 -0.20311849157E+02 -0.62085561679E+02  0.80917402437E+03  0.81180649782E+03  0.00000000000E+00 0. -1.
<mgrwt>
<rscale>  0 0.44858621E+02</rscale>
<asrwt>0</asrwt>
<pdfrwt beam="1">  1        2 0.18670918E+00 0.65295329E+02</pdfrwt>
<pdfrwt beam="2">  1        2 0.38182556E+00 0.30818374E+02</pdfrwt>
<totfact> 0.18615352E+01</totfact>
</mgrwt>
</event>
<event>
13    1  0.1595792E-008  0.1918232E+02  0.7546771E-02  0.1768532E+00
          2   -1    0    0  502    0  0.00000000000E+00  0.00000000000E+00  0.17648494724E+04  0.17648494724E+04  0.00000000000E+00 0. -1.
          2   -1    0    0  503    0 -0.00000000000E+00 -0.00000000000E+00 -0.28272361659E+04  0.28272361659E+04  0.00000000000E+00 0. -1.
         24    2    1    2    0    0  0.13790113122E+03 -0.11794665936E+03 -0.34860642908E+03  0.39634383358E+03  0.51321102663E+02 0.  0.
         25    2    1    2    0    0 -0.78042035975E+02 -0.25298771958E+03 -0.21533643136E+03  0.36343898226E+03  0.12499907806E+03 0.  0.
         24    2    1    2    0    0 -0.65744171315E+02  0.37569216345E+03  0.72647178988E+03  0.82444834855E+03  0.80541419131E+02 0.  0.
        -13    1    5    5    0    0  0.13478315782E+02  0.12796292378E+03  0.26961991636E+03  0.29874918269E+03  0.00000000000E+00 0.  1.
         14    1    5    5    0    0 -0.79222487097E+02  0.24772923967E+03  0.45685187352E+03  0.52569916586E+03  0.00000000000E+00 0. -1.
        -13    1    3    3    0    0  0.45946312686E+02 -0.22036466428E+02 -0.60682858881E+02  0.79240638968E+02  0.00000000000E+00 0.  1.
         14    1    3    3    0    0  0.91954818533E+02 -0.95910192936E+02 -0.28792357020E+03  0.31710319462E+03  0.00000000000E+00 0. -1.
          5    1    4    4  501    0 -0.95558827873E+02 -0.11746780648E+03 -0.81149920269E+02  0.17186498975E+03  0.47000000000E+01 0.  1.
         -5    1    4    4    0  501  0.17516791898E+02 -0.13551991310E+03 -0.13418651109E+03  0.19157399250E+03  0.47000000000E+01 0.  1.
          1    1    1    2  502    0 -0.98128801722E+01 -0.15783578378E+02  0.89132908271E+03  0.89152282509E+03  0.00000000000E+00 0. -1.
          1    1    1    2  503    0  0.15697956243E+02  0.11025793868E+02 -0.21162447056E+04  0.21163316488E+04  0.00000000000E+00 0. -1.
<mgrwt>
<rscale>  0 0.18881457E+02</rscale>
<asrwt>0</asrwt>
<pdfrwt beam="1">  1        2 0.25953669E+00 0.18585316E+02</pdfrwt>
<pdfrwt beam="2">  1        2 0.41577002E+00 0.19182317E+02</pdfrwt>
<totfact> 0.10265354E+01</totfact>
</mgrwt>
</event>
<event>
13    1  0.1595792E-008  0.1336958E+03  0.7546771E-02  0.1377032E+00
          2   -1    0    0  502    0  0.00000000000E+00  0.00000000000E+00  0.31026548420E+03  0.31026548420E+03  0.00000000000E+00 0. -1.
          2   -1    0    0  503    0 -0.00000000000E+00 -0.00000000000E+00 -0.13584451252E+04  0.13584451252E+04  0.00000000000E+00 0. -1.
         24    2    1    2    0    0 -0.36365195722E+02 -0.30136125463E+02 -0.34536495595E+03  0.35680382236E+03  0.76166930730E+02 0.  0.
         25    2    1    2    0    0 -0.15584882042E+03 -0.17104554206E+01 -0.26403445258E+03  0.33110768299E+03  0.12500530030E+03 0.  0.
         24    2    1    2    0    0  0.30449260531E+02  0.11077546707E+02 -0.69865270290E+01  0.88457200420E+02  0.82012165185E+02 0.  0.
        -11    1    3    3    0    0  0.68080017912E+01  0.14147114027E+02 -0.19078934211E+02  0.24708206214E+02  0.00000000000E+00 0.  1.
         12    1    3    3    0    0 -0.43173197513E+02 -0.44283239490E+02 -0.32628602174E+03  0.33209561615E+03  0.00000000000E+00 0. -1.
        -13    1    5    5    0    0  0.11569447231E+01  0.43440720444E+02 -0.10366482778E+02  0.44675481855E+02  0.00000000000E+00 0.  1.
         14    1    5    5    0    0  0.29292315807E+02 -0.32363173736E+02  0.33799557490E+01  0.43781718565E+02  0.00000000000E+00 0. -1.
          5    1    4    4  501    0 -0.76202932175E+01  0.42606737474E+02 -0.75730797053E+02  0.87353572160E+02  0.47000000000E+01 0.  1.
         -5    1    4    4    0  501 -0.14822852720E+03 -0.44317192894E+02 -0.18830365553E+03  0.24375411083E+03  0.47000000000E+01 0.  1.
          1    1    1    2  502    0  0.19299652337E+03  0.14547435418E+02  0.18912570655E+03  0.27060639089E+03  0.00000000000E+00 0. -1.
          1    1    1    2  503    0 -0.31231767766E+02  0.62215987590E+01 -0.62091941200E+03  0.62173551274E+03  0.00000000000E+00 0. -1.
<mgrwt>
<rscale>  0 0.65250292E+02</rscale>
<asrwt>0</asrwt>
<pdfrwt beam="1">  1        2 0.45627277E-01 0.13369580E+03</pdfrwt>
<pdfrwt beam="2">  1        2 0.19977134E+00 0.31845433E+02</pdfrwt>
<totfact> 0.35073894E+02</totfact>
</mgrwt>
</event>
<event>
13    1  0.1595792E-008  0.2021767E+02  0.7546771E-02  0.1827634E+00
          2   -1    0    0  502    0  0.00000000000E+00  0.00000000000E+00  0.12178226321E+04  0.12178226321E+04  0.00000000000E+00 0. -1.
          2   -1    0    0  503    0 -0.00000000000E+00 -0.00000000000E+00 -0.61212129008E+03  0.61212129008E+03  0.00000000000E+00 0. -1.
         24    2    1    2    0    0  0.23300692176E+02  0.70635589174E+02 -0.24814940864E+03  0.27215072506E+03  0.83400116480E+02 0.  0.
         25    2    1    2    0    0 -0.12969069651E+03 -0.18424474359E+03  0.26741952348E+03  0.37135441052E+03  0.12500037748E+03 0.  0.
         24    2    1    2    0    0  0.92401368837E+02  0.87705262952E+02  0.78861722253E+02  0.17184271760E+03  0.84145839130E+02 0.  0.
        -13    1    5    5    0    0  0.13518213231E+02  0.24741384686E+02  0.63855477760E+02  0.69802580504E+02  0.00000000000E+00 0.  1.
         14    1    5    5    0    0  0.78883155606E+02  0.62963878267E+02  0.15006244494E+02  0.10204013710E+03  0.00000000000E+00 0. -1.
        -13    1    3    3    0    0  0.32450094828E+02  0.82572005544E+02 -0.16204131466E+03  0.18473909281E+03  0.00000000000E+00 0.  1.
         14    1    3    3    0    0 -0.91494026520E+01 -0.11936416370E+02 -0.86108093977E+02  0.87411632253E+02  0.00000000000E+00 0. -1.
          5    1    4    4  501    0 -0.63625980963E+02 -0.18027473482E+03  0.20260629609E+03  0.27860123238E+03  0.47000000000E+01 0.  1.
         -5    1    4    4    0  501 -0.66064715549E+02 -0.39700087731E+01  0.64813227393E+02  0.92753178142E+02  0.47000000000E+01 0.  1.
          1    1    1    2  502    0  0.15738939188E+02  0.12686011904E+02  0.76077311815E+03  0.76104164564E+03  0.00000000000E+00 0. -1.
          1    1    1    2  503    0 -0.17503036894E+01  0.13217879560E+02 -0.25320361318E+03  0.25355442341E+03  0.00000000000E+00 0. -1.
<mgrwt>
<rscale>  0 0.16418510E+02</rscale>
<asrwt>0</asrwt>
<pdfrwt beam="1">  1        2 0.17909156E+00 0.20217666E+02</pdfrwt>
<pdfrwt beam="2">  1        2 0.90017837E-01 0.13333263E+02</pdfrwt>
<totfact> 0.21221590E+02</totfact>
</mgrwt>
</event>
<event>
13    1  0.1595792E-008  0.1385936E+03  0.7546771E-02  0.1337020E+00
          2   -1    0    0  502    0  0.00000000000E+00  0.00000000000E+00  0.34711148808E+04  0.34711148808E+04  0.00000000000E+00 0. -1.
          4   -1    0    0  503    0 -0.00000000000E+00 -0.00000000000E+00 -0.10506220764E+04  0.10506220764E+04  0.00000000000E+00 0. -1.
         24    2    1    2    0    0  0.31144289794E+02  0.15884651146E+02 -0.96673131535E+02  0.13078547115E+03  0.80850826675E+02 0.  0.
         25    2    1    2    0    0  0.44077483211E+02 -0.25795088120E+03 -0.13560834405E+03  0.32015127743E+03  0.12500294327E+03 0.  0.
         24    2    1    2    0    0 -0.31066372726E+02  0.66817977386E+02 -0.44205405021E+02  0.11800463146E+03  0.80877769485E+02 0.  0.
        -13    1    5    5    0    0 -0.27417635885E+02  0.13961267906E+02  0.18508884204E+02  0.35905745412E+02  0.00000000000E+00 0.  1.
         14    1    5    5    0    0 -0.36487368407E+01  0.52856709480E+02 -0.62714289225E+02  0.82098886049E+02  0.00000000000E+00 0. -1.
        -13    1    3    3    0    0  0.39283999735E+02 -0.23942138490E+02 -0.62944649413E+02  0.77964655584E+02  0.00000000000E+00 0.  1.
         14    1    3    3    0    0 -0.81397099413E+01  0.39826789636E+02 -0.33728482123E+02  0.52820815565E+02  0.00000000000E+00 0. -1.
          5    1    4    4  501    0 -0.21999469969E+02 -0.11647367498E+03 -0.11013507936E+03  0.16187006934E+03  0.47000000000E+01 0. -1.
         -5    1    4    4    0  501  0.66076953179E+02 -0.14147720622E+03 -0.25473264689E+02  0.15828120809E+03  0.47000000000E+01 0. -1.
          1    1    1    2  502    0 -0.36910985928E+02  0.13279594874E+03  0.33227187848E+04  0.33255762370E+04  0.00000000000E+00 0. -1.
          3    1    1    2  503    0 -0.72444143503E+01  0.42452303921E+02 -0.62573909983E+03  0.62721934019E+03  0.00000000000E+00 0. -1.
<mgrwt>
<rscale>  0 0.77257184E+02</rscale>
<asrwt>0</asrwt>
<pdfrwt beam="1">  1        2 0.51045807E+00 0.13859364E+03</pdfrwt>
<pdfrwt beam="2">  1        4 0.15450325E+00 0.43065992E+02</pdfrwt>
<totfact> 0.22542544E-01</totfact>
</mgrwt>
</event>
<event>
13    1  0.1595792E-008  0.1066127E+03  0.7546771E-02  0.1291947E+00
         -1   -1    0    0    0  501 -0.00000000000E+00  0.00000000000E+00  0.73568346005E+03  0.73568346005E+03  0.00000000000E+00 0.  1.
          2   -1    0    0  503    0  0.00000000000E+00 -0.00000000000E+00 -0.67984019170E+03  0.67984019170E+03  0.00000000000E+00 0. -1.
         24    2    1    2    0    0  0.57087831235E+02 -0.45747979279E+02  0.13327518577E+03  0.17066787516E+03  0.77545795430E+02 0.  0.
         25    2    1    2    0    0  0.10130926512E+03  0.46073220688E+02  0.12747413347E+03  0.21038186616E+03  0.12499826416E+03 0.  0.
         24    2    1    2    0    0 -0.13949166316E+02  0.22977985607E+02 -0.37669264599E+02  0.92902924304E+02  0.80556891606E+02 0.  0.
        -11    1    3    3    0    0  0.52001814819E+02 -0.66960401605E+02  0.10492103020E+03  0.13489368668E+03  0.00000000000E+00 0.  1.
         12    1    3    3    0    0  0.50860164153E+01  0.21212422326E+02  0.28354155567E+02  0.35774188486E+02  0.00000000000E+00 0. -1.
        -13    1    5    5    0    0  0.97297174350E+01  0.43109791950E+02 -0.42659818717E+02  0.61424601719E+02  0.00000000000E+00 0.  1.
         14    1    5    5    0    0 -0.23678883751E+02 -0.20131806343E+02  0.49905541183E+01  0.31478322584E+02  0.00000000000E+00 0. -1.
          5    1    4    4  502    0  0.14504885158E+02  0.11952173143E+02  0.11446391469E+03  0.11609187699E+03  0.47000000000E+01 0.  1.
         -5    1    4    4    0  502  0.86804379961E+02  0.34121047544E+02  0.13010218782E+02  0.94289989176E+02  0.47000000000E+01 0.  1.
          1    1    1    2  503    0 -0.11559733979E+03  0.55634460870E+02 -0.54226871246E+03  0.55723719789E+03  0.00000000000E+00 0. -1.
         -2    1    1    2    0  501 -0.28850590249E+02 -0.78937687886E+02  0.37503192617E+03  0.38433378823E+03  0.00000000000E+00 0.  1.
<mgrwt>
<rscale>  0 0.94658515E+02</rscale>
<asrwt>0</asrwt>
<pdfrwt beam="2">  1        2 0.99976498E-01 0.10661270E+03</pdfrwt>
<pdfrwt beam="1">  1       -1 0.10818874E+00 0.84044721E+02</pdfrwt>
<totfact> 0.48333773E+01</totfact>
</mgrwt>
</event>
<event>
13    1  0.1595792E-008  0.8007951E+02  0.7546771E-02  0.1348137E+00
          2   -1    0    0  502    0  0.00000000000E+00  0.00000000000E+00  0.15962984177E+04  0.15962984177E+04  0.00000000000E+00 0. -1.
          2   -1    0    0  503    0 -0.00000000000E+00 -0.00000000000E+00 -0.10963524358E+04  0.10963524358E+04  0.00000000000E+00 0. -1.
         24    2    1    2    0    0  0.20526656795E+03 -0.56075221345E+03 -0.28707544355E+03  0.67060370041E+03  0.10353552006E+03 0.  0.
         25    2    1    2    0    0 -0.15619109413E+03  0.65130095218E+03  0.49194575632E+03  0.84037167219E+03  0.12500132820E+03 0.  0.
         24    2    1    2    0    0  0.31038146631E+02 -0.10480937128E+03  0.21731913435E+03  0.25663178015E+03  0.81755082873E+02 0.  0.
        -11    1    5    5    0    0  0.44299351822E+02 -0.24216471834E+02  0.11585929051E+03  0.12638134862E+03  0.00000000000E+00 0.  1.
         12    1    5    5    0    0 -0.13261205192E+02 -0.80592899443E+02  0.10145984384E+03  0.13025043154E+03  0.00000000000E+00 0. -1.
        -13    1    3    3    0    0  0.16513827811E+03 -0.34942266840E+03 -0.22279348667E+03  0.44609840819E+03  0.00000000000E+00 0.  1.
         14    1    3    3    0    0  0.40128289843E+02 -0.21132954504E+03 -0.64281956882E+02  0.22450529222E+03  0.00000000000E+00 0. -1.
          5    1    4    4  501    0 -0.79294524144E+02  0.40829709172E+03  0.37447040349E+03  0.55968232932E+03  0.47000000000E+01 0.  1.
         -5    1    4    4    0  501 -0.76896569985E+02  0.24300386046E+03  0.11747535284E+03  0.28068934287E+03  0.47000000000E+01 0.  1.
          1    1    1    2  502    0 -0.39605230372E+02 -0.54927434733E+02  0.49528221991E+03  0.49989006263E+03  0.00000000000E+00 0. -1.
          1    1    1    2  503    0 -0.40508390081E+02  0.69188067273E+02 -0.41752568508E+03  0.42515363814E+03  0.00000000000E+00 0. -1.
<mgrwt>
<rscale>  0 0.73639305E+02</rscale>
<asrwt>0</asrwt>
<pdfrwt beam="1">  1        2 0.23474977E+00 0.67717039E+02</pdfrwt>
<pdfrwt beam="2">  1        2 0.16122830E+00 0.80079509E+02</pdfrwt>
<totfact> 0.60627398E+01</totfact>
</mgrwt>
</event>
<event>
13    1  0.1595792E-008  0.9812137E+02  0.7546771E-02  0.1284722E+00
         -1   -1    0    0    0  501 -0.00000000000E+00  0.00000000000E+00  0.41787716514E+03  0.41787716514E+03  0.00000000000E+00 0.  1.
          2   -1    0    0  503    0  0.00000000000E+00 -0.00000000000E+00 -0.17362821033E+04  0.17362821033E+04  0.00000000000E+00 0. -1.
         24    2    1    2    0    0 -0.77620309848E+01 -0.88271192729E+02  0.32773041693E+02  0.12415198139E+03  0.80545574872E+02 0.  0.
         25    2    1    2    0    0 -0.17754239583E+03  0.81643830573E+02 -0.20414731180E+03  0.30903281449E+03  0.12505254148E+03 0.  0.
         24    2    1    2    0    0  0.90580983451E+02 -0.12485436895E+02 -0.38047168676E+03  0.39952729520E+03  0.80638418190E+02 0.  0.
        -11    1    3    3    0    0 -0.22485597981E+02 -0.90613257651E+02  0.60571684787E+01  0.93557756860E+02  0.00000000000E+00 0.  1.
         12    1    3    3    0    0  0.14723566997E+02  0.23420649220E+01  0.26715873215E+02  0.30594224534E+02  0.00000000000E+00 0. -1.
        -13    1    5    5    0    0 -0.51372000731E+01  0.11390771419E+02 -0.95950312976E+01  0.15754527086E+02  0.00000000000E+00 0.  1.
         14    1    5    5    0    0  0.95718183524E+02 -0.23876208314E+02 -0.37087665546E+03  0.38377276812E+03  0.00000000000E+00 0. -1.
          5    1    4    4  502    0 -0.10908469184E+03  0.98980187845E+02 -0.18340963077E+03  0.23528223528E+03  0.47000000000E+01 0.  1.
         -5    1    4    4    0  502 -0.68457703996E+02 -0.17336357272E+02 -0.20737681026E+02  0.73750579213E+02  0.47000000000E+01 0.  1.
          1    1    1    2  503    0  0.29422455044E+02  0.93193842010E+02 -0.10328352204E+04  0.10374484881E+04  0.00000000000E+00 0. -1.
         -2    1    1    2    0  501  0.65300988323E+02 -0.74081042959E+02  0.26627623907E+03  0.28399868925E+03  0.00000000000E+00 0.  1.
<mgrwt>
<rscale>  0 0.97924515E+02</rscale>
<asrwt>0</asrwt>
<pdfrwt beam="2">  1        2 0.25533560E+00 0.97728057E+02</pdfrwt>
<pdfrwt beam="1">  1       -1 0.61452525E-01 0.98121367E+02</pdfrwt>
<totfact> 0.40033116E+01</totfact>
</mgrwt>
</event>
<event>
13    1  0.1595792E-008  0.8750703E+02  0.7546771E-02  0.1494580E+00
         -1   -1    0    0    0  501 -0.00000000000E+00  0.00000000000E+00  0.16025236510E+04  0.16025236510E+04  0.00000000000E+00 0.  1.
          2   -1    0    0  503    0  0.00000000000E+00 -0.00000000000E+00 -0.17205417741E+04  0.17205417741E+04  0.00000000000E+00 0. -1.
         24    2    1    2    0    0  0.23262941387E+02  0.27994354435E+02 -0.12543779021E+02  0.89832336304E+02  0.81164363679E+02 0.  0.
         25    2    1    2    0    0 -0.30531254079E+03 -0.52981131027E+02 -0.41207288927E+03  0.53052135681E+03  0.12500438452E+03 0.  0.
         24    2    1    2    0    0  0.28458105419E+03  0.10941414406E+03 -0.41059161538E+03  0.51756068190E+03  0.79534605664E+02 0.  0.
        -13    1    3    3    0    0  0.10715383870E+02  0.43323328605E+02 -0.37273487708E+02  0.58146737990E+02  0.00000000000E+00 0.  1.
         14    1    3    3    0    0  0.12547557518E+02 -0.15328974170E+02  0.24729708687E+02  0.31685598314E+02  0.00000000000E+00 0. -1.
        -13    1    5    5    0    0  0.17517133361E+02  0.18769094781E+02 -0.97885821451E+01  0.27476266495E+02  0.00000000000E+00 0.  1.
         14    1    5    5    0    0  0.26706392083E+03  0.90645049284E+02 -0.40080303324E+03  0.49008441540E+03  0.00000000000E+00 0. -1.
          5    1    4    4  502    0 -0.18718220984E+03 -0.93120972319E+02 -0.24983975281E+03  0.32580774584E+03  0.47000000000E+01 0.  1.
         -5    1    4    4    0  502 -0.11813033095E+03  0.40139841292E+02 -0.16223313646E+03  0.20471361096E+03  0.47000000000E+01 0.  1.
          1    1    1    2  503    0  0.17495370434E+02 -0.85832797335E+02 -0.73129702569E+03  0.73652474287E+03  0.00000000000E+00 0. -1.
         -2    1    1    2    0  501 -0.20026825224E+02  0.14054298617E+01  0.14484871863E+04  0.14486263072E+04  0.00000000000E+00 0.  1.
<mgrwt>
<rscale>  0 0.41914176E+02</rscale>
<asrwt>0</asrwt>
<pdfrwt beam="2">  1        2 0.25302085E+00 0.87507033E+02</pdfrwt>
<pdfrwt beam="1">  1       -1 0.23566524E+00 0.20076079E+02</pdfrwt>
<totfact> 0.18707711E+00</totfact>
</mgrwt>
</event>
<event>
13    1  0.1595792E-008  0.6418451E+02  0.7546771E-02  0.1400030E+00
          2   -1    0    0  502    0  0.00000000000E+00  0.00000000000E+00  0.38129927280E+03  0.38129927280E+03  0.00000000000E+00 0. -1.
          4   -1    0    0  503    0 -0.00000000000E+00 -0.00000000000E+00 -0.14398127551E+04  0.14398127551E+04  0.00000000000E+00 0. -1.
         24    2    1    2    0    0  0.84982720964E+02 -0.49543658775E+02 -0.18580797075E+03  0.22474767878E+03  0.79437271709E+02 0.  0.
         25    2    1    2    0    0 -0.13819359068E+03  0.25400939619E+02 -0.19981087766E+03  0.27438952602E+03  0.12499019529E+03 0.  0.
         24    2    1    2    0    0  0.33736402364E+02  0.15713235060E+02  0.78147935311E+02  0.11834385577E+03  0.80703889648E+02 0.  0.
        -11    1    5    5    0    0  0.51755554120E+02 -0.49579221953E+01  0.23201137461E+02  0.56934270473E+02  0.00000000000E+00 0.  1.
         12    1    5    5    0    0 -0.18019151756E+02  0.20671157255E+02  0.54946797850E+02  0.61409585296E+02  0.00000000000E+00 0. -1.
        -11    1    3    3    0    0  0.16183013294E+01 -0.55255285621E+01 -0.90532681843E+02  0.90715582161E+02  0.00000000000E+00 0.  1.
         12    1    3    3    0    0  0.83364419635E+02 -0.44018130213E+02 -0.95275288905E+02  0.13403209662E+03  0.00000000000E+00 0. -1.
          5    1    4    4  501    0 -0.65906244222E+02  0.39078383208E+02 -0.18346743372E+03  0.19887971817E+03  0.47000000000E+01 0.  1.
         -5    1    4    4    0  501 -0.72287346462E+02 -0.13677443589E+02 -0.16343443934E+02  0.75509807848E+02  0.47000000000E+01 0.  1.
          1    1    1    2  502    0  0.63100903907E+01 -0.54756569992E+02  0.22185262038E+03  0.22859720988E+03  0.00000000000E+00 0. -1.
          3    1    1    2  503    0  0.13164376965E+02  0.63186054088E+02 -0.97289518960E+03  0.97503375747E+03  0.00000000000E+00 0. -1.
<mgrwt>
<rscale>  0 0.59479266E+02</rscale>
<asrwt>0</asrwt>
<pdfrwt beam="1">  1        2 0.56073424E-01 0.55118955E+02</pdfrwt>
<pdfrwt beam="2">  1        4 0.21173717E+00 0.64184510E+02</pdfrwt>
<totfact> 0.58389980E+00</totfact>
</mgrwt>
</event>
<event>
13    1  0.1595792E-008  0.9977636E+02  0.7546771E-02  0.1374785E+00
          2   -1    0    0  502    0  0.00000000000E+00  0.00000000000E+00  0.45479270683E+03  0.45479270683E+03  0.00000000000E+00 0. -1.
          2   -1    0    0  503    0 -0.00000000000E+00 -0.00000000000E+00 -0.13293751558E+04  0.13293751558E+04  0.00000000000E+00 0. -1.
         24    2    1    2    0    0 -0.44641184518E+02 -0.42469306523E+01 -0.14433757952E+03  0.17135727998E+03  0.80740998043E+02 0.  0.
         25    2    1    2    0    0  0.30410270636E+03  0.21624052097E+01 -0.31678154097E+03  0.45656540584E+03  0.12497316949E+03 0.  0.
         24    2    1    2    0    0 -0.14987100699E+03  0.24886134985E+02 -0.32989212345E+03  0.37355781180E+03  0.87384135825E+02 0.  0.
        -11    1    5    5    0    0 -0.13071830778E+02  0.15279862926E+02 -0.47256199651E+01  0.20656196528E+02  0.00000000000E+00 0.  1.
         12    1    5    5    0    0 -0.13679917621E+03  0.96062720582E+01 -0.32516650348E+03  0.35290161527E+03  0.00000000000E+00 0. -1.
        -11    1    3    3    0    0 -0.47406549944E+02 -0.32315377848E+02 -0.12386140603E+03  0.13650389199E+03  0.00000000000E+00 0.  1.
         12    1    3    3    0    0  0.27653654261E+01  0.28068447195E+02 -0.20476173489E+02  0.34853387994E+02  0.00000000000E+00 0. -1.
          5    1    4    4  501    0  0.12211967734E+03  0.51036631599E+02 -0.83147326313E+02  0.15637621697E+03  0.47000000000E+01 0. -1.
         -5    1    4    4    0  501  0.18198302902E+03 -0.48874226389E+02 -0.23363421466E+03  0.30018918887E+03  0.47000000000E+01 0. -1.
          1    1    1    2  502    0 -0.81882746922E+02 -0.56291067409E+02  0.34136561558E+03  0.35553333460E+03  0.00000000000E+00 0. -1.
          1    1    1    2  503    0 -0.27707767933E+02  0.33489457867E+02 -0.42493682059E+03  0.42715403040E+03  0.00000000000E+00 0. -1.
<mgrwt>
<rscale>  0 0.65854733E+02</rscale>
<asrwt>0</asrwt>
<pdfrwt beam="1">  1        2 0.66881280E-01 0.99776357E+02</pdfrwt>
<pdfrwt beam="2">  1        2 0.19549635E+00 0.43465667E+02</pdfrwt>
<totfact> 0.23617345E+02</totfact>
</mgrwt>
</event>
<event>
13    1  0.1595792E-008  0.8050535E+02  0.7546771E-02  0.1424495E+00
          2   -1    0    0  503    0  0.00000000000E+00  0.00000000000E+00  0.15241027805E+04  0.15241027805E+04  0.00000000000E+00 0. -1.
          2   -1    0    0  502    0 -0.00000000000E+00 -0.00000000000E+00 -0.32952397110E+04  0.32952397110E+04  0.00000000000E+00 0. -1.
         24    2    1    2    0    0  0.18098556933E+03  0.37931343667E+03 -0.50702615457E+03  0.66241639228E+03  0.71312662229E+02 0.  0.
         25    2    1    2    0    0  0.50698776340E+03 -0.68487576925E+03 -0.10893814199E+03  0.86809097713E+03  0.12499205674E+03 0.  0.
         24    2    1    2    0    0 -0.68137873326E+03  0.22101118411E+03 -0.19220410085E+03  0.74595751543E+03  0.79920440386E+02 0.  0.
        -11    1    3    3    0    0  0.96518779781E+02  0.12310577082E+03 -0.19239634343E+03  0.24796624493E+03  0.00000000000E+00 0.  1.
         12    1    3    3    0    0  0.84466789551E+02  0.25620766585E+03 -0.31462981114E+03  0.41445014735E+03  0.00000000000E+00 0. -1.
        -13    1    5    5    0    0 -0.56571731760E+03  0.16459721950E+03 -0.18300362724E+03  0.61694299225E+03  0.00000000000E+00 0.  1.
         14    1    5    5    0    0 -0.11566141567E+03  0.56413964608E+02 -0.92004736054E+01  0.12901452318E+03  0.00000000000E+00 0. -1.
          5    1    4    4  501    0  0.45169343510E+03 -0.60129270335E+03 -0.54727359099E+02  0.75405374361E+03  0.47000000000E+01 0. -1.
         -5    1    4    4    0  501  0.55294328292E+02 -0.83583065899E+02 -0.54210782889E+02  0.11403723352E+03  0.47000000000E+01 0. -1.
          1    1    1    2  502    0  0.33266883096E+02  0.14601303120E+02 -0.17506827613E+04  0.17510596832E+04  0.00000000000E+00 0. -1.
          1    1    1    2  503    0 -0.39861482561E+02  0.69949845348E+02  0.78771422818E+03  0.79181792347E+03  0.00000000000E+00 0. -1.
<mgrwt>
<rscale>  0 0.54081194E+02</rscale>
<asrwt>0</asrwt>
<pdfrwt beam="1">  1        2 0.22413277E+00 0.80505350E+02</pdfrwt>
<pdfrwt beam="2">  1        2 0.48459406E+00 0.36330202E+02</pdfrwt>
<totfact> 0.59180091E+00</totfact>
</mgrwt>
</event>
<event>
13    1  0.1595792E-008  0.1388294E+03  0.7546771E-02  0.1352136E+00
          2   -1    0    0  502    0  0.00000000000E+00  0.00000000000E+00  0.38589819380E+03  0.38589819380E+03  0.00000000000E+00 0. -1.
          2   -1    0    0  503    0 -0.00000000000E+00 -0.00000000000E+00 -0.20848128775E+04  0.20848128775E+04  0.00000000000E+00 0. -1.
         24    2    1    2    0    0 -0.43750874091E+01 -0.24278822764E+01 -0.96636544461E+02  0.12474934802E+03  0.78732090683E+02 0.  0.
         25    2    1    2    0    0  0.16279874284E+03 -0.72245143023E+02 -0.51858003275E+03  0.56238166576E+03  0.12500038499E+03 0.  0.
         24    2    1    2    0    0 -0.47204104720E+02  0.40374078545E+02  0.77547913269E+01  0.10040062158E+03  0.78497479601E+02 0.  0.
        -11    1    5    5    0    0  0.20080363448E+02 -0.41373739163E+00 -0.49849172299E+01  0.20693998517E+02  0.00000000000E+00 0.  1.
         12    1    5    5    0    0 -0.67284468168E+02  0.40787815937E+02  0.12739708557E+02  0.79706623060E+02  0.00000000000E+00 0. -1.
        -13    1    3    3    0    0  0.79211239334E+01 -0.33694081552E+02 -0.80193200853E+02  0.87344059896E+02  0.00000000000E+00 0.  1.
         14    1    3    3    0    0 -0.12296211342E+02  0.31266199275E+02 -0.16443343608E+02  0.37405288122E+02  0.00000000000E+00 0. -1.
          5    1    4    4  501    0  0.17361850093E+03 -0.56158707479E+02 -0.37114814726E+03  0.41360636057E+03  0.47000000000E+01 0.  1.
         -5    1    4    4    0  501 -0.10819758084E+02 -0.16086435544E+02 -0.14743188550E+03  0.14877530519E+03  0.47000000000E+01 0.  1.
          1    1    1    2  502    0 -0.14654433947E+03  0.20984736279E+02  0.27706832155E+03  0.31413764084E+03  0.00000000000E+00 0. -1.
          1    1    1    2  503    0  0.35324788757E+02  0.13314210476E+02 -0.13685212194E+04  0.13690417951E+04  0.00000000000E+00 0. -1.
<mgrwt>
<rscale>  0 0.72394037E+02</rscale>
<asrwt>0</asrwt>
<pdfrwt beam="1">  1        2 0.56749735E-01 0.13882944E+03</pdfrwt>
<pdfrwt beam="2">  1        2 0.30659012E+00 0.37750615E+02</pdfrwt>
<totfact> 0.12659089E+02</totfact>
</mgrwt>
</event>
<event>
13    1  0.1595792E-008  0.7325974E+02  0.7546771E-02  0.1397914E+00
          2   -1    0    0  502    0  0.00000000000E+00  0.00000000000E+00  0.73530031338E+03  0.73530031338E+03  0.00000000000E+00 0. -1.
          2   -1    0    0  503    0 -0.00000000000E+00 -0.00000000000E+00 -0.67227531373E+03  0.67227531373E+03  0.00000000000E+00 0. -1.
         24    2    1    2    0    0  0.33144643546E+01  0.44045634792E+02  0.36616928667E+02  0.10111121965E+03  0.83256685350E+02 0.  0.
         25    2    1    2    0    0 -0.88657729253E+02 -0.31263464638E+02 -0.52708997352E+02  0.16504600736E+03  0.12499739584E+03 0.  0.
         24    2    1    2    0    0  0.69721882081E+01 -0.30777948009E+02  0.94999925283E+02  0.12889422044E+03  0.81196310054E+02 0.  0.
        -11    1    5    5    0    0  0.24518857485E+02 -0.51774589682E+02  0.77646462741E+02  0.96492257127E+02  0.00000000000E+00 0.  1.
         12    1    5    5    0    0 -0.17546669277E+02  0.20996641673E+02  0.17353462542E+02  0.32401963311E+02  0.00000000000E+00 0. -1.
        -13    1    3    3    0    0 -0.38172104499E+02  0.34299064216E+02  0.15888189176E+02  0.53721224141E+02  0.00000000000E+00 0.  1.
         14    1    3    3    0    0  0.41486568853E+02  0.97465705765E+01  0.20728739490E+02  0.47389995506E+02  0.00000000000E+00 0. -1.
          5    1    4    4  501    0 -0.22142780069E+02  0.32142859083E+02 -0.61094059727E+02  0.72650122045E+02  0.47000000000E+01 0.  1.
         -5    1    4    4    0  501 -0.66514949185E+02 -0.63406323721E+02  0.83850623751E+01  0.92395885319E+02  0.47000000000E+01 0.  1.
          1    1    1    2  502    0  0.47368443942E+02  0.56080548888E+02  0.49443206146E+03  0.49985183890E+03  0.00000000000E+00 0. -1.
          1    1    1    2  503    0  0.31002632749E+02 -0.38084771033E+02 -0.51031491841E+03  0.51267234075E+03  0.00000000000E+00 0. -1.
<mgrwt>
<rscale>  0 0.59980433E+02</rscale>
<asrwt>0</asrwt>
<pdfrwt beam="1">  1        2 0.10813240E+00 0.73259741E+02</pdfrwt>
<pdfrwt beam="2">  1        2 0.98864017E-01 0.49108177E+02</pdfrwt>
<totfact> 0.32872932E+02</totfact>
</mgrwt>
</event>
<event>
13    1  0.1595792E-008  0.8802087E+02  0.7546771E-02  0.1375078E+00
          2   -1    0    0  502    0  0.00000000000E+00  0.00000000000E+00  0.13372253923E+04  0.13372253923E+04  0.00000000000E+00 0. -1.
          2   -1    0    0  503    0 -0.00000000000E+00 -0.00000000000E+00 -0.45191915371E+03  0.45191915371E+03  0.00000000000E+00 0. -1.
         24    2    1    2    0    0 -0.68899275336E+02 -0.56358065597E+02  0.55614473808E+02  0.13227439601E+03  0.80499717041E+02 0.  0.
         25    2    1    2    0    0  0.12765950764E+03  0.99601822976E+01  0.20563612409E+03  0.27258655575E+03  0.12498423790E+03 0.  0.
         24    2    1    2    0    0 -0.39355628914E+01  0.49225311620E+02  0.35497644296E+03  0.36741095080E+03  0.80894448219E+02 0.  0.
        -11    1    3    3    0    0 -0.49148259979E+02 -0.77057862861E+02  0.42943630036E+02  0.10098327113E+03  0.00000000000E+00 0.  1.
         12    1    3    3    0    0 -0.19751015356E+02  0.20699797264E+02  0.12670843772E+02  0.31291124880E+02  0.00000000000E+00 0. -1.
        -13    1    5    5    0    0  0.21931959575E+02 -0.12270481768E+02  0.61290661655E+02  0.66242892296E+02  0.00000000000E+00 0.  1.
         14    1    5    5    0    0 -0.25867522467E+02  0.61495793388E+02  0.29368578130E+03  0.30116805850E+03  0.00000000000E+00 0. -1.
          5    1    4    4  501    0  0.14407273329E+02 -0.44217293449E+02  0.91967837776E+02  0.10316448880E+03  0.47000000000E+01 0.  1.
         -5    1    4    4    0  501  0.11325223431E+03  0.54177475747E+02  0.11366828631E+03  0.16942206694E+03  0.47000000000E+01 0.  1.
          1    1    1    2  502    0  0.19298909169E+02  0.45204738465E+02  0.63679934652E+03  0.63869345073E+03  0.00000000000E+00 0. -1.
          1    1    1    2  503    0 -0.74123578581E+02 -0.48032166786E+02 -0.36772014881E+03  0.37817919270E+03  0.00000000000E+00 0. -1.
<mgrwt>
<rscale>  0 0.65775368E+02</rscale>
<asrwt>0</asrwt>
<pdfrwt beam="1">  1        2 0.19665079E+00 0.49151971E+02</pdfrwt>
<pdfrwt beam="2">  1        2 0.66458700E-01 0.88020866E+02</pdfrwt>
<totfact> 0.23380452E+02</totfact>
</mgrwt>
</event>
<event>
13    1  0.1595792E-008  0.4422560E+02  0.7546771E-02  0.1495280E+00
          2   -1    0    0  503    0  0.00000000000E+00  0.00000000000E+00  0.21315717181E+04  0.21315717181E+04  0.00000000000E+00 0. -1.
          2   -1    0    0  502    0 -0.00000000000E+00 -0.00000000000E+00 -0.14501293677E+04  0.14501293677E+04  0.00000000000E+00 0. -1.
         24    2    1    2    0    0 -0.54535449994E+02  0.10970316374E+03 -0.82050255709E+03  0.83354717538E+03  0.81040409372E+02 0.  0.
         25    2    1    2    0    0  0.64235997344E+02 -0.16700198177E+03  0.28238356422E+03  0.35690936561E+03  0.12501157007E+03 0.  0.
         24    2    1    2    0    0  0.55308177686E+01  0.77229777642E+02  0.31067629231E+02  0.11418628233E+03  0.77963331036E+02 0.  0.
        -11    1    3    3    0    0 -0.75971129369E+02  0.89808274552E+02 -0.65275369706E+03  0.66326806624E+03  0.00000000000E+00 0.  1.
         12    1    3    3    0    0  0.21435679375E+02  0.19894889186E+02 -0.16774886003E+03  0.17027910914E+03  0.00000000000E+00 0. -1.
        -13    1    5    5    0    0  0.39422527237E+02  0.48584396498E+02  0.51071708506E+01  0.62774695786E+02  0.00000000000E+00 0.  1.
         14    1    5    5    0    0 -0.33891709469E+02  0.28645381143E+02  0.25960458380E+02  0.51411586543E+02  0.00000000000E+00 0. -1.
          5    1    4    4  501    0  0.46637870420E+02 -0.15940572598E+02  0.14010540198E+03  0.14859611865E+03  0.47000000000E+01 0. -1.
         -5    1    4    4    0  501  0.17598126924E+02 -0.15106140917E+03  0.14227816223E+03  0.20831324696E+03  0.47000000000E+01 0. -1.
          1    1    1    2  502    0 -0.34034707085E+02  0.20109501863E+02 -0.54328165770E+03  0.54471801232E+03  0.00000000000E+00 0. -1.
          1    1    1    2  503    0  0.18803341967E+02 -0.40040461475E+02  0.17317753717E+04  0.17323402502E+04  0.00000000000E+00 0. -1.
<mgrwt>
<rscale>  0 0.41812820E+02</rscale>
<asrwt>0</asrwt>
<pdfrwt beam="1">  1        2 0.31346643E+00 0.44225597E+02</pdfrwt>
<pdfrwt beam="2">  1        2 0.21325432E+00 0.39531675E+02</pdfrwt>
<totfact> 0.24711012E+01</totfact>
</mgrwt>
</event>
<event>
13    1  0.1595792E-008  0.5091223E+02  0.7546771E-02  0.1509994E+00
          2   -1    0    0  503    0  0.00000000000E+00  0.00000000000E+00  0.27094464952E+04  0.27094464952E+04  0.00000000000E+00 0. -1.
          2   -1    0    0  502    0 -0.00000000000E+00 -0.00000000000E+00 -0.14015123853E+04  0.14015123853E+04  0.00000000000E+00 0. -1.
         24    2    1    2    0    0  0.32164116624E+00 -0.83139739119E+02 -0.81554908186E+03  0.82517213211E+03  0.94214770631E+02 0.  0.
         25    2    1    2    0    0  0.23285667452E+03  0.29689602450E+03 -0.39625407890E+02  0.39945648408E+03  0.12500331793E+03 0.  0.
         24    2    1    2    0    0 -0.23256643213E+03 -0.18412198689E+03  0.53867628259E+03  0.62068595323E+03  0.84207266356E+02 0.  0.
        -11    1    3    3    0    0  0.27887395587E+01  0.21030299767E+02 -0.15810635069E+03  0.15952325443E+03  0.00000000000E+00 0.  1.
         12    1    3    3    0    0 -0.24670983925E+01 -0.10417003889E+03 -0.65744273117E+03  0.66564887767E+03  0.00000000000E+00 0. -1.
        -13    1    5    5    0    0 -0.12768925688E+03 -0.69639082158E+02  0.19233721904E+03  0.24113845383E+03  0.00000000000E+00 0.  1.
         14    1    5    5    0    0 -0.10487717524E+03 -0.11448290473E+03  0.34633906355E+03  0.37954749940E+03  0.00000000000E+00 0. -1.
          5    1    4    4  501    0  0.23406764340E+03  0.22490319977E+03 -0.23291319454E+02  0.32547455586E+03  0.47000000000E+01 0.  1.
         -5    1    4    4    0  501 -0.12109688775E+01  0.71992824731E+02 -0.16334088436E+02  0.73981928221E+02  0.47000000000E+01 0.  1.
          1    1    1    2  502    0 -0.28084694049E+02  0.13239073138E+02 -0.31952009732E+03  0.32102510134E+03  0.00000000000E+00 0. -1.
          1    1    1    2  503    0  0.27472810487E+02 -0.42873371631E+02  0.19439524144E+04  0.19446192097E+04  0.00000000000E+00 0. -1.
<mgrwt>
<rscale>  0 0.39758770E+02</rscale>
<asrwt>0</asrwt>
<pdfrwt beam="1">  1        2 0.39844801E+00 0.50912234E+02</pdfrwt>
<pdfrwt beam="2">  1        2 0.20610476E+00 0.31048721E+02</pdfrwt>
<totfact> 0.13812592E+01</totfact>
</mgrwt>
</event>
<event>
13    1  0.1595792E-008  0.8699412E+02  0.7546771E-02  0.1372933E+00
          2   -1    0    0  503    0  0.00000000000E+00  0.00000000000E+00  0.25173830061E+04  0.25173830061E+04  0.00000000000E+00 0. -1.
          2   -1    0    0  502    0 -0.00000000000E+00 -0.00000000000E+00 -0.11554869802E+04  0.11554869802E+04  0.00000000000E+00 0. -1.
         24    2    1    2    0    0 -0.25386398400E+03 -0.23860778825E+03 -0.36557421420E+03  0.51129104501E+03  0.79958912163E+02 0.  0.
         25    2    1    2    0    0  0.32304066825E+03  0.23960378902E+01 -0.24917235113E+02  0.34728577661E+03  0.12500211073E+03 0.  0.
         24    2    1    2    0    0 -0.55034070927E+02  0.20192284145E+03  0.13452431357E+03  0.25892140548E+03  0.71707185198E+02 0.  0.
        -11    1    5    5    0    0  0.76048613451E+01  0.10303312733E+03  0.74477054493E+02  0.12735969099E+03  0.00000000000E+00 0.  1.
         12    1    5    5    0    0 -0.62638932272E+02  0.98889714122E+02  0.60047259078E+02  0.13156171448E+03  0.00000000000E+00 0. -1.
        -13    1    3    3    0    0 -0.14708275072E+03 -0.18960642208E+03 -0.24494767580E+03  0.34290420635E+03  0.00000000000E+00 0.  1.
         14    1    3    3    0    0 -0.10678123328E+03 -0.49001366173E+02 -0.12062653840E+03  0.16838683866E+03  0.00000000000E+00 0. -1.
          5    1    4    4  501    0  0.24572192328E+03  0.37588513326E+02 -0.59169903956E+02  0.25556863549E+03  0.47000000000E+01 0. -1.
         -5    1    4    4    0  501  0.77318744973E+02 -0.35192475436E+02  0.34252668843E+02  0.91717141116E+02  0.47000000000E+01 0. -1.
          1    1    1    2  502    0  0.30124788840E+02 -0.40677444366E+02 -0.46647646166E+03  0.46921471276E+03  0.00000000000E+00 0. -1.
          1    1    1    2  503    0 -0.44267402164E+02  0.74966353279E+02  0.20843396233E+04  0.20861570464E+04  0.00000000000E+00 0. -1.
<mgrwt>
<rscale>  0 0.66358476E+02</rscale>
<asrwt>0</asrwt>
<pdfrwt beam="1">  1        2 0.37020338E+00 0.86994122E+02</pdfrwt>
<pdfrwt beam="2">  1        2 0.16992456E+00 0.50617758E+02</pdfrwt>
<totfact> 0.20360467E+01</totfact>
</mgrwt>
</event>
<event>
13    1  0.1595792E-008  0.7715783E+02  0.7546771E-02  0.1365994E+00
          2   -1    0    0  502    0  0.00000000000E+00  0.00000000000E+00  0.20273679401E+04  0.20273679401E+04  0.00000000000E+00 0. -1.
          2   -1    0    0  503    0 -0.00000000000E+00 -0.00000000000E+00 -0.30085445518E+04  0.30085445518E+04  0.00000000000E+00 0. -1.
         24    2    1    2    0    0 -0.25947514236E+02 -0.67629004270E+01 -0.84797922901E+02  0.12131511986E+03  0.82508546591E+02 0.  0.
         25    2    1    2    0    0 -0.54182945203E+02 -0.39930759879E+02 -0.25860371278E+01  0.14198089376E+03  0.12498651715E+03 0.  0.
         24    2    1    2    0    0  0.92234421706E+02  0.27072609001E+02  0.51494114491E+03  0.53008202351E+03  0.81132325374E+02 0.  0.
        -11    1    3    3    0    0  0.15116742248E+00  0.20004571280E+02 -0.81347475751E+02  0.83771221399E+02  0.00000000000E+00 0.  1.
         12    1    3    3    0    0 -0.26098681659E+02 -0.26767471707E+02 -0.34504471499E+01  0.37543898458E+02  0.00000000000E+00 0. -1.
        -13    1    5    5    0    0  0.83991802797E+02  0.18134172446E+02  0.24080885426E+03  0.25568022106E+03  0.00000000000E+00 0.  1.
         14    1    5    5    0    0  0.82426189086E+01  0.89384365553E+01  0.27413229065E+03  0.27440180245E+03  0.00000000000E+00 0. -1.
          5    1    4    4  501    0 -0.53668697536E+02 -0.55974510821E+01  0.53448076202E+02  0.76094989345E+02  0.47000000000E+01 0. -1.
         -5    1    4    4    0  501 -0.51424766668E+00 -0.34333308797E+02 -0.56034113330E+02  0.65885904413E+02  0.47000000000E+01 0. -1.
          1    1    1    2  502    0 -0.19431940707E+02 -0.57239029395E+02  0.14157278489E+04  0.14170177307E+04  0.00000000000E+00 0. -1.
          1    1    1    2  503    0  0.73279784407E+01  0.76860080701E+02 -0.28244616455E+04  0.28255167241E+04  0.00000000000E+00 0. -1.
<mgrwt>
<rscale>  0 0.68293501E+02</rscale>
<asrwt>0</asrwt>
<pdfrwt beam="1">  1        2 0.29814235E+00 0.60447554E+02</pdfrwt>
<pdfrwt beam="2">  1        2 0.44243302E+00 0.77157833E+02</pdfrwt>
<totfact> 0.43602499E+00</totfact>
</mgrwt>
</event>
<event>
13    1  0.1595792E-008  0.2183657E+03  0.7546771E-02  0.1292898E+00
          2   -1    0    0  502    0  0.00000000000E+00  0.00000000000E+00  0.12322173768E+04  0.12322173768E+04  0.00000000000E+00 0. -1.
          2   -1    0    0  503    0 -0.00000000000E+00 -0.00000000000E+00 -0.22989273224E+04  0.22989273224E+04  0.00000000000E+00 0. -1.
         24    2    1    2    0    0 -0.85208601643E+02  0.89750416700E+02 -0.42635168559E+03  0.45751568215E+03  0.11058569763E+03 0.  0.
         25    2    1    2    0    0  0.97552453309E+02 -0.25305358098E+03 -0.60670768087E+03  0.67621794875E+03  0.12499563269E+03 0.  0.
         24    2    1    2    0    0  0.14018637490E+03  0.24907928750E+03  0.38278627878E+02  0.30015554196E+03  0.83278958028E+02 0.  0.
        -13    1    3    3    0    0 -0.55647027807E+02  0.58565068089E+01 -0.28547825352E+03  0.29091016415E+03  0.00000000000E+00 0.  1.
         14    1    3    3    0    0 -0.29561573836E+02  0.83893909891E+02 -0.14087343207E+03  0.16660551800E+03  0.00000000000E+00 0. -1.
        -13    1    5    5    0    0  0.41838771251E+02  0.14028919396E+03  0.45559020846E+02  0.15332046537E+03  0.00000000000E+00 0.  1.
         14    1    5    5    0    0  0.98347603647E+02  0.10879009354E+03 -0.72803929677E+01  0.14683507659E+03  0.00000000000E+00 0. -1.
          5    1    4    4  501    0  0.90356666405E+02 -0.20018703299E+03 -0.34441921844E+03  0.40851666229E+03  0.47000000000E+01 0.  1.
         -5    1    4    4    0  501  0.71957869035E+01 -0.52866547992E+02 -0.26228846244E+03  0.26770128646E+03  0.47000000000E+01 0.  1.
          1    1    1    2  502    0 -0.18683045194E+03 -0.10763000887E+03  0.10007963169E+04  0.10237593001E+04  0.00000000000E+00 0. -1.
          1    1    1    2  503    0  0.34300225376E+02  0.21853885657E+02 -0.10727255240E+04  0.10734962262E+04  0.00000000000E+00 0. -1.
<mgrwt>
<rscale>  0 0.94239404E+02</rscale>
<asrwt>0</asrwt>
<pdfrwt beam="1">  1        2 0.18120844E+00 0.21836573E+03</pdfrwt>
<pdfrwt beam="2">  1        2 0.33807754E+00 0.40670601E+02</pdfrwt>
<totfact> 0.23948078E+01</totfact>
</mgrwt>
</event>
<event>
13    1  0.1595792E-008  0.4637046E+02  0.7546771E-02  0.1490348E+00
          2   -1    0    0  502    0  0.00000000000E+00  0.00000000000E+00  0.65985061403E+03  0.65985061403E+03  0.00000000000E+00 0. -1.
          4   -1    0    0  503    0 -0.00000000000E+00 -0.00000000000E+00 -0.10814274039E+04  0.10814274039E+04  0.00000000000E+00 0. -1.
         24    2    1    2    0    0 -0.36330559735E+02  0.42801109786E+02 -0.32080522674E+01  0.97097870860E+02  0.79157187650E+02 0.  0.
         25    2    1    2    0    0  0.11524631186E+03 -0.61267457809E+01  0.66338275472E+01  0.17026022782E+03  0.12500115238E+03 0.  0.
         24    2    1    2    0    0 -0.10585699800E+03 -0.76772614849E+02  0.19961196495E+03  0.25198332888E+03  0.80937772782E+02 0.  0.
        -13    1    5    5    0    0 -0.18743687384E+02  0.17268383724E+02  0.29609179188E+02  0.39066947480E+02  0.00000000000E+00 0.  1.
         14    1    5    5    0    0 -0.87113310616E+02 -0.94040998573E+02  0.17000278577E+03  0.21291638140E+03  0.00000000000E+00 0. -1.
        -13    1    3    3    0    0  0.73027337992E+01 -0.39354313511E+00 -0.29437549760E+02  0.30332394120E+02  0.00000000000E+00 0.  1.
         14    1    3    3    0    0 -0.43633293534E+02  0.43194652921E+02  0.26229497493E+02  0.66765476740E+02  0.00000000000E+00 0. -1.
          5    1    4    4  501    0  0.35520613870E+02  0.49851530496E+02  0.32355961420E+02  0.69396594599E+02  0.47000000000E+01 0.  1.
         -5    1    4    4    0  501  0.79725697989E+02 -0.55978276277E+02 -0.25722133873E+02  0.10086363322E+03  0.47000000000E+01 0.  1.
          1    1    1    2  502    0 -0.19055985141E+02  0.34045669719E+02  0.29680069874E+03  0.29935412636E+03  0.00000000000E+00 0. -1.
          3    1    1    2  503    0  0.45997231018E+02  0.60525811249E+01 -0.92141522887E+03  0.92258246406E+03  0.00000000000E+00 0. -1.
<mgrwt>
<rscale>  0 0.42534503E+02</rscale>
<asrwt>0</asrwt>
<pdfrwt beam="1">  1        2 0.97036857E-01 0.39015871E+02</pdfrwt>
<pdfrwt beam="2">  1        4 0.15903344E+00 0.46370462E+02</pdfrwt>
<totfact> 0.70271064E+00</totfact>
</mgrwt>
</event>
<event>
13    1  0.1595792E-008  0.1225437E+03  0.7546771E-02  0.1249314E+00
          2   -1    0    0  502    0  0.00000000000E+00  0.00000000000E+00  0.26728171963E+04  0.26728171963E+04  0.00000000000E+00 0. -1.
          2   -1    0    0  503    0 -0.00000000000E+00 -0.00000000000E+00 -0.11729195750E+04  0.11729195750E+04  0.00000000000E+00 0. -1.
         24    2    1    2    0    0  0.34330754145E+02 -0.22896988762E+02 -0.27613054279E+02  0.94962527392E+02  0.80947687228E+02 0.  0.
         25    2    1    2    0    0 -0.40259121894E+02 -0.48901677532E+02  0.88794148067E+03  0.89893127612E+03  0.12500078054E+03 0.  0.
         24    2    1    2    0    0 -0.10055092625E+03  0.11124142254E+03  0.38049611611E+03  0.41684959738E+03  0.80629706691E+02 0.  0.
        -11    1    5    5    0    0 -0.29230766566E+02  0.11824702197E+02  0.17394261395E+03  0.17677752754E+03  0.00000000000E+00 0.  1.
         12    1    5    5    0    0 -0.71320159684E+02  0.99416720343E+02  0.20655350217E+03  0.24007206984E+03  0.00000000000E+00 0. -1.
        -13    1    3    3    0    0 -0.20910957739E+02  0.11742303207E+02  0.42501645732E+00  0.23986047552E+02  0.00000000000E+00 0.  1.
         14    1    3    3    0    0  0.55241711884E+02 -0.34639291969E+02 -0.28038070736E+02  0.70976479841E+02  0.00000000000E+00 0. -1.
          5    1    4    4  501    0 -0.75090706915E+02 -0.32136921545E+01  0.63799455026E+03  0.64242359721E+03  0.47000000000E+01 0.  1.
         -5    1    4    4    0  501  0.34831585021E+02 -0.45687985378E+02  0.24994693040E+03  0.25650767891E+03  0.47000000000E+01 0.  1.
          1    1    1    2  502    0 -0.23982691808E+02 -0.10772313490E+03  0.13397715995E+04  0.13443092583E+04  0.00000000000E+00 0. -1.
          1    1    1    2  503    0  0.13046198581E+03  0.68280378655E+02 -0.10806985207E+04  0.10906841121E+04  0.00000000000E+00 0. -1.
<mgrwt>
<rscale>  0 0.11630868E+03</rscale>
<asrwt>0</asrwt>
<pdfrwt beam="1">  1        2 0.39306135E+00 0.11039093E+03</pdfrwt>
<pdfrwt beam="2">  1        2 0.17248817E+00 0.12254366E+03</pdfrwt>
<totfact> 0.15306822E+01</totfact>
</mgrwt>
</event>
<event>
13    1  0.1595792E-008  0.1223854E+03  0.7546771E-02  0.1323811E+00
          4   -1    0    0  503    0 -0.00000000000E+00  0.00000000000E+00  0.10393612541E+04  0.10393612541E+04  0.00000000000E+00 0. -1.
          2   -1    0    0  502    0  0.00000000000E+00 -0.00000000000E+00 -0.12340743255E+04  0.12340743255E+04  0.00000000000E+00 0. -1.
         24    2    1    2    0    0 -0.33744199788E+02  0.44246587220E+02  0.12469553818E+03  0.15880000917E+03  0.81068083555E+02 0.  0.
         25    2    1    2    0    0  0.24866366128E+02  0.16604610224E+03 -0.40774336229E+02  0.21325166010E+03  0.12499631916E+03 0.  0.
         24    2    1    2    0    0  0.12632066744E+02  0.17635185095E+02 -0.17401869460E+03  0.19277542754E+03  0.80058044733E+02 0.  0.
        -11    1    5    5    0    0 -0.26930909653E+02 -0.92795124323E+00 -0.12150041753E+03  0.12445274786E+03  0.00000000000E+00 0.  1.
         12    1    5    5    0    0  0.39562976397E+02  0.18563136338E+02 -0.52518277072E+02  0.68322679681E+02  0.00000000000E+00 0. -1.
        -11    1    3    3    0    0  0.70818907129E+00  0.59865700754E+02  0.67483035190E+02  0.90212879884E+02  0.00000000000E+00 0.  1.
         12    1    3    3    0    0 -0.34452388859E+02 -0.15619113534E+02  0.57212502988E+02  0.68587129287E+02  0.00000000000E+00 0. -1.
          5    1    4    4  501    0  0.41386999639E+01 -0.18047311780E+02  0.93611249493E+01  0.21273339187E+02  0.47000000000E+01 0. -1.
         -5    1    4    4    0  501  0.20727666164E+02  0.18409341402E+03 -0.50135461178E+02  0.19197832091E+03  0.47000000000E+01 0. -1.
          1    1    1    2  502    0 -0.46925778973E+02 -0.19421548560E+03 -0.89464373129E+03  0.91668374564E+03  0.00000000000E+00 0. -1.
          3    1    1    2  503    0  0.43171545889E+02 -0.33712388957E+02  0.79002815251E+03  0.79192473714E+03  0.00000000000E+00 0. -1.
<mgrwt>
<rscale>  0 0.81875945E+02</rscale>
<asrwt>0</asrwt>
<pdfrwt beam="2">  1        2 0.18148152E+00 0.12238544E+03</pdfrwt>
<pdfrwt beam="1">  1        4 0.15284724E+00 0.54775063E+02</pdfrwt>
<totfact> 0.33767167E+00</totfact>
</mgrwt>
</event>
<event>
13    1  0.1595792E-008  0.4175407E+02  0.7546771E-02  0.1622285E+00
          2   -1    0    0  502    0  0.00000000000E+00  0.00000000000E+00  0.17461399547E+04  0.17461399547E+04  0.00000000000E+00 0. -1.
          2   -1    0    0  503    0 -0.00000000000E+00 -0.00000000000E+00 -0.37935552288E+04  0.37935552288E+04  0.00000000000E+00 0. -1.
         24    2    1    2    0    0  0.11745427197E+03  0.13099959430E+03 -0.49812362141E+03  0.53403983822E+03  0.78198509509E+02 0.  0.
         25    2    1    2    0    0  0.15403263337E+04 -0.14148714984E+03 -0.11926993733E+04  0.19572380751E+04  0.12500103907E+03 0.  0.
         24    2    1    2    0    0 -0.16434976298E+04  0.34256287462E+02  0.57027724256E+03  0.17425722702E+04  0.95310183172E+02 0.  0.
        -11    1    3    3    0    0  0.10605695590E+03  0.98322833016E+02 -0.30147226566E+03  0.33436654191E+03  0.00000000000E+00 0.  1.
         12    1    3    3    0    0  0.11397316075E+02  0.32676761283E+02 -0.19665135574E+03  0.19967329630E+03  0.00000000000E+00 0. -1.
        -11    1    5    5    0    0 -0.15073461652E+04  0.50376736668E+01  0.52041374629E+03  0.15946624430E+04  0.00000000000E+00 0.  1.
         12    1    5    5    0    0 -0.13615146463E+03  0.29218613795E+02  0.49863496276E+02  0.14790982717E+03  0.00000000000E+00 0. -1.
          5    1    4    4  501    0  0.42948255613E+03  0.47774163244E+01 -0.28808168192E+03  0.51719554830E+03  0.47000000000E+01 0.  1.
         -5    1    4    4    0  501  0.11108437775E+04 -0.14626456616E+03 -0.90461769136E+03  0.14400425268E+04  0.47000000000E+01 0.  1.
          1    1    1    2  502    0 -0.32841192122E+02 -0.25806906053E+02  0.18710691608E+03  0.19171212362E+03  0.00000000000E+00 0. -1.
          1    1    1    2  503    0  0.18558216318E+02  0.20381741319E+01 -0.11139764381E+04  0.11141328764E+04  0.00000000000E+00 0. -1.
<mgrwt>
<rscale>  0 0.27920250E+02</rscale>
<asrwt>0</asrwt>
<pdfrwt beam="1">  1        2 0.25678529E+00 0.41754074E+02</pdfrwt>
<pdfrwt beam="2">  1        2 0.55787576E+00 0.18669803E+02</pdfrwt>
<totfact> 0.30022290E+00</totfact>
</mgrwt>
</event>
<event>
13    1  0.1595792E-008  0.4904813E+02  0.7546771E-02  0.1454224E+00
          4   -1    0    0  503    0 -0.00000000000E+00  0.00000000000E+00  0.40364441819E+03  0.40364441819E+03  0.00000000000E+00 0. -1.
          2   -1    0    0  502    0  0.00000000000E+00 -0.00000000000E+00 -0.10550470213E+04  0.10550470213E+04  0.00000000000E+00 0. -1.
         24    2    1    2    0    0 -0.28343033164E+02  0.18868394966E+02  0.64891239553E+02  0.10931798700E+03  0.81118465552E+02 0.  0.
         25    2    1    2    0    0  0.23346383479E+02 -0.85365493843E+01 -0.10549849441E+03  0.16543280317E+03  0.12498061348E+03 0.  0.
         24    2    1    2    0    0  0.60301253538E+01 -0.11776763093E+02 -0.32223874457E+03  0.33248933688E+03  0.80847362833E+02 0.  0.
        -11    1    5    5    0    0 -0.25450780263E+02  0.22183617180E+02 -0.17175644940E+03  0.17504323180E+03  0.00000000000E+00 0.  1.
         12    1    5    5    0    0  0.31480905617E+02 -0.33960380274E+02 -0.15048229516E+03  0.15744610508E+03  0.00000000000E+00 0. -1.
        -13    1    3    3    0    0 -0.47597735143E+02 -0.57867107898E+01  0.61307012740E+02  0.77830458200E+02  0.00000000000E+00 0.  1.
         14    1    3    3    0    0  0.19254701978E+02  0.24655105756E+02  0.35842268128E+01  0.31487528801E+02  0.00000000000E+00 0. -1.
          5    1    4    4  501    0 -0.20001618784E+01 -0.21199843278E+01 -0.12950765831E+03  0.12962568627E+03  0.47000000000E+01 0.  1.
         -5    1    4    4    0  501  0.25346545357E+02 -0.64165650564E+01  0.24009163905E+02  0.35807116892E+02  0.47000000000E+01 0.  1.
          1    1    1    2  502    0 -0.18490265062E+02  0.45879369952E+02 -0.56689468873E+03  0.56904867507E+03  0.00000000000E+00 0. -1.
          3    1    1    2  503    0  0.17456789394E+02 -0.44434452441E+02  0.27833808499E+03  0.28240263741E+03  0.00000000000E+00 0. -1.
<mgrwt>
<rscale>  0 0.48389924E+02</rscale>
<asrwt>0</asrwt>
<pdfrwt beam="2">  1        2 0.15515397E+00 0.49048132E+02</pdfrwt>
<pdfrwt beam="1">  1        4 0.59359474E-01 0.47740549E+02</pdfrwt>
<totfact> 0.36526855E+01</totfact>
</mgrwt>
</event>
<event>
13    1  0.1595792E-008  0.2926111E+03  0.7546771E-02  0.1386272E+00
         -1   -1    0    0    0  501 -0.00000000000E+00  0.00000000000E+00  0.14016300345E+04  0.14016300345E+04  0.00000000000E+00 0.  1.
          2   -1    0    0  503    0  0.00000000000E+00 -0.00000000000E+00 -0.24285699076E+04  0.24285699076E+04  0.00000000000E+00 0. -1.
         24    2    1    2    0    0 -0.42104886926E+03  0.94669126220E+02  0.11671600231E+03  0.45555041959E+03  0.87516660304E+02 0.  0.
         25    2    1    2    0    0  0.84291502812E+03  0.46222470701E+02 -0.33614256521E+03  0.91719889727E+03  0.12497892459E+03 0.  0.
         24    2    1    2    0    0 -0.57191680112E+03 -0.40360271487E+03  0.29066487239E+02  0.70541735743E+03  0.82369949739E+02 0.  0.
        -11    1    3    3    0    0 -0.19412286655E+03  0.51403722940E+02  0.99542274125E+01  0.20105998283E+03  0.00000000000E+00 0.  1.
         12    1    3    3    0    0 -0.22692600271E+03  0.43265403279E+02  0.10676177490E+03  0.25449043677E+03  0.00000000000E+00 0. -1.
        -13    1    5    5    0    0 -0.34953595624E+03 -0.19775003352E+03  0.84864661013E+01  0.40168704306E+03  0.00000000000E+00 0.  1.
         14    1    5    5    0    0 -0.22238084489E+03 -0.20585268135E+03  0.20580021138E+02  0.30373031436E+03  0.00000000000E+00 0. -1.
          5    1    4    4  502    0  0.50815513308E+03  0.86984434911E+01 -0.13920592881E+03  0.52697028646E+03  0.47000000000E+01 0. -1.
         -5    1    4    4    0  502  0.33475989504E+03  0.37524027210E+02 -0.19693663639E+03  0.39022861081E+03  0.47000000000E+01 0. -1.
          1    1    1    2  503    0  0.15261297993E+03  0.24945985441E+03 -0.12776833176E+04  0.13107233120E+04  0.00000000000E+00 0. -1.
         -2    1    1    2    0  501 -0.25623376594E+01  0.13251263540E+02  0.44110352020E+03  0.44130995581E+03  0.00000000000E+00 0.  1.
<mgrwt>
<rscale>  0 0.62843388E+02</rscale>
<asrwt>0</asrwt>
<pdfrwt beam="2">  1        2 0.35714263E+00 0.29261111E+03</pdfrwt>
<pdfrwt beam="1">  1       -1 0.20612207E+00 0.13496724E+02</pdfrwt>
<totfact> 0.11569592E+00</totfact>
</mgrwt>
</event>
<event>
13    1  0.1595792E-008  0.1725242E+03  0.7546771E-02  0.1263930E+00
          4   -1    0    0  503    0  0.00000000000E+00  0.00000000000E+00  0.12448784012E+04  0.12448784012E+04  0.00000000000E+00 0. -1.
         -1   -1    0    0    0  501 -0.00000000000E+00 -0.00000000000E+00 -0.74641598180E+03  0.74641598180E+03  0.00000000000E+00 0.  1.
         24    2    1    2    0    0 -0.16927691490E+03 -0.15887710029E+03 -0.31651781047E+02  0.24744296233E+03  0.79558641576E+02 0.  0.
         25    2    1    2    0    0 -0.58800885684E+02  0.19424728315E+03  0.11813675372E+03  0.26602704643E+03  0.12499818273E+03 0.  0.
         24    2    1    2    0    0  0.69586282087E+02 -0.63988833728E+02  0.11785784722E+03  0.17300984467E+03  0.84291830604E+02 0.  0.
        -11    1    5    5    0    0  0.68996575420E+01 -0.84670325345E+00  0.73066743799E+02  0.73396670428E+02  0.00000000000E+00 0.  1.
         12    1    5    5    0    0  0.62686624545E+02 -0.63142130475E+02  0.44791103418E+02  0.99613174245E+02  0.00000000000E+00 0. -1.
        -13    1    3    3    0    0 -0.11769205332E+02 -0.29735114285E+02 -0.29860456303E+02  0.43753149216E+02  0.00000000000E+00 0.  1.
         14    1    3    3    0    0 -0.15750770957E+03 -0.12914198600E+03 -0.17913247436E+01  0.20368981311E+03  0.00000000000E+00 0. -1.
          5    1    4    4  502    0 -0.55950657472E+02  0.18525244644E+03  0.53910165954E+02  0.20094113809E+03  0.47000000000E+01 0. -1.
         -5    1    4    4    0  502 -0.28502282114E+01  0.89948367049E+01  0.64226587764E+02  0.65085908336E+02  0.47000000000E+01 0. -1.
          3    1    1    2  503    0 -0.67666961707E+01  0.67526914844E+02  0.78369953959E+03  0.78663246867E+03  0.00000000000E+00 0. -1.
         -2    1    1    2    0  501  0.16525821467E+03 -0.38908263978E+02 -0.48957994008E+03  0.51818206091E+03  0.00000000000E+00 0.  1.
<mgrwt>
<rscale>  0 0.10820524E+03</rscale>
<asrwt>0</asrwt>
<pdfrwt beam="1">  1        4 0.18307035E+00 0.67865104E+02</pdfrwt>
<pdfrwt beam="2">  1       -1 0.10976706E+00 0.17252421E+03</pdfrwt>
<totfact> 0.60976006E-01</totfact>
</mgrwt>
</event>
<event>
13    1  0.1595792E-008  0.1199360E+03  0.7546771E-02  0.1268478E+00
          2   -1    0    0  502    0  0.00000000000E+00  0.00000000000E+00  0.16338949857E+04  0.16338949857E+04  0.00000000000E+00 0. -1.
          2   -1    0    0  503    0 -0.00000000000E+00 -0.00000000000E+00 -0.97630839018E+03  0.97630839018E+03  0.00000000000E+00 0. -1.
         24    2    1    2    0    0 -0.18765473242E+02 -0.72612138064E+01 -0.21012637250E+03  0.22645235693E+03  0.81992129644E+02 0.  0.
         25    2    1    2    0    0  0.17207520662E+03  0.57632894070E+02  0.11969318771E+03  0.25076929165E+03  0.12500940459E+03 0.  0.
         24    2    1    2    0    0  0.20069149067E+01 -0.19493619845E+03  0.23950677163E+03  0.31878419174E+03  0.79093097506E+02 0.  0.
        -11    1    5    5    0    0  0.12375198569E+02 -0.15136003455E+03  0.12798468697E+03  0.19860283407E+03  0.00000000000E+00 0.  1.
         12    1    5    5    0    0 -0.10368283662E+02 -0.43576163894E+02  0.11152208465E+03  0.12018135767E+03  0.00000000000E+00 0. -1.
        -13    1    3    3    0    0 -0.16760386808E+02 -0.42995660554E+02 -0.14464743102E+03  0.15183022325E+03  0.00000000000E+00 0.  1.
         14    1    3    3    0    0 -0.20050864337E+01  0.35734446748E+02 -0.65478941487E+02  0.74622133675E+02  0.00000000000E+00 0. -1.
          5    1    4    4  501    0  0.12421508674E+03  0.89868851274E+02  0.52613850455E+02  0.16216073958E+03  0.47000000000E+01 0.  1.
         -5    1    4    4    0  501  0.47860119879E+02 -0.32235957203E+02  0.67079337257E+02  0.88608552062E+02  0.47000000000E+01 0.  1.
          1    1    1    2  502    0 -0.88668570617E+02  0.76453181365E+02  0.11549023089E+04  0.11608214968E+04  0.00000000000E+00 0. -1.
          1    1    1    2  503    0 -0.66648077666E+02  0.68111336819E+02 -0.64638930027E+03  0.65337603871E+03  0.00000000000E+00 0. -1.
<mgrwt>
<rscale>  0 0.10583752E+03</rscale>
<asrwt>0</asrwt>
<pdfrwt beam="1">  1        2 0.24027867E+00 0.11993604E+03</pdfrwt>
<pdfrwt beam="2">  1        2 0.14357476E+00 0.93396281E+02</pdfrwt>
<totfact> 0.64201909E+01</totfact>
</mgrwt>
</event>
<event>
13    1  0.1595792E-008  0.5531863E+02  0.7546771E-02  0.1498110E+00
          2   -1    0    0  502    0  0.00000000000E+00  0.00000000000E+00  0.76569949829E+03  0.76569949829E+03  0.00000000000E+00 0. -1.
          2   -1    0    0  503    0 -0.00000000000E+00 -0.00000000000E+00 -0.10600262661E+04  0.10600262661E+04  0.00000000000E+00 0. -1.
         24    2    1    2    0    0 -0.31262857608E+02  0.54466725673E+02 -0.56763056127E+03  0.57682262138E+03  0.81091873645E+02 0.  0.
         25    2    1    2    0    0  0.79210266648E+02  0.41738432619E+02  0.54060008334E+02  0.16298476271E+03  0.12500074110E+03 0.  0.
         24    2    1    2    0    0  0.31839644944E+02 -0.12698916718E+03  0.13260483418E+02  0.15379697736E+03  0.79609410588E+02 0.  0.
        -13    1    5    5    0    0  0.37025890038E+02 -0.79780313367E+02  0.42854503398E+02  0.97838251187E+02  0.00000000000E+00 0.  1.
         14    1    5    5    0    0 -0.51862450938E+01 -0.47208853811E+02 -0.29594019980E+02  0.55958726173E+02  0.00000000000E+00 0. -1.
        -13    1    3    3    0    0  0.50315841346E+01 -0.19475721449E+02 -0.10254617709E+03  0.10450042584E+03  0.00000000000E+00 0.  1.
         14    1    3    3    0    0 -0.36294441742E+02  0.73942447122E+02 -0.46508438419E+03  0.47232219554E+03  0.00000000000E+00 0. -1.
          5    1    4    4  501    0  0.40560963543E+02  0.31163106896E+02  0.93426733850E+02  0.10661601940E+03  0.47000000000E+01 0.  1.
         -5    1    4    4    0  501  0.38649303104E+02  0.10575325723E+02 -0.39366725515E+02  0.56368743310E+02  0.47000000000E+01 0.  1.
          1    1    1    2  502    0 -0.49373264329E+02  0.24821002237E+02  0.56704529810E+03  0.56973166621E+03  0.00000000000E+00 0. -1.
          1    1    1    2  503    0 -0.30413789655E+02  0.59630066480E+01 -0.36106199644E+03  0.36238973677E+03  0.00000000000E+00 0. -1.
<mgrwt>
<rscale>  0 0.41406297E+02</rscale>
<asrwt>0</asrwt>
<pdfrwt beam="1">  1        2 0.11260287E+00 0.55318632E+02</pdfrwt>
<pdfrwt beam="2">  1        2 0.15588622E+00 0.30992839E+02</pdfrwt>
<totfact> 0.18827864E+02</totfact>
</mgrwt>
</event>
<event>
13    1  0.1595792E-008  0.1838540E+03  0.7546771E-02  0.1337194E+00
          2   -1    0    0  502    0  0.00000000000E+00  0.00000000000E+00  0.94091619398E+03  0.94091619398E+03  0.00000000000E+00 0. -1.
          2   -1    0    0  503    0 -0.00000000000E+00 -0.00000000000E+00 -0.11769051153E+04  0.11769051153E+04  0.00000000000E+00 0. -1.
         24    2    1    2    0    0  0.61269184534E+02  0.68252874443E+02 -0.11969428016E+03  0.16979099243E+03  0.78037763699E+02 0.  0.
         25    2    1    2    0    0 -0.35103877199E+03 -0.36346918421E+02 -0.24480131674E+03  0.44732825570E+03  0.12500226299E+03 0.  0.
         24    2    1    2    0    0  0.10046768725E+02 -0.88059697160E+02  0.61109096444E+02  0.13403524228E+03  0.79847834526E+02 0.  0.
        -11    1    5    5    0    0  0.14418316595E+02 -0.41314610331E+01 -0.14592200960E+02  0.20925801121E+02  0.00000000000E+00 0.  1.
         12    1    5    5    0    0 -0.43715478697E+01 -0.83928236127E+02  0.75701297404E+02  0.11310944116E+03  0.00000000000E+00 0. -1.
        -11    1    3    3    0    0  0.35285558439E+01  0.56579833208E+02 -0.34998159398E+02  0.66622814361E+02  0.00000000000E+00 0.  1.
         12    1    3    3    0    0  0.57740628690E+02  0.11673041235E+02 -0.84696120765E+02  0.10316817807E+03  0.00000000000E+00 0. -1.
          5    1    4    4  501    0 -0.86013377877E+02 -0.51470971991E+02 -0.26980988025E+02  0.10391162517E+03  0.47000000000E+01 0.  1.
         -5    1    4    4    0  501 -0.26502539411E+03  0.15124053570E+02 -0.21782032872E+03  0.34341663053E+03  0.47000000000E+01 0.  1.
          1    1    1    2  502    0  0.26761180337E+03  0.86221576769E+02  0.68903206148E+03  0.74418775813E+03  0.00000000000E+00 0. -1.
          1    1    1    2  503    0  0.12111015357E+02 -0.30067835631E+02 -0.62163448232E+03  0.62247906072E+03  0.00000000000E+00 0. -1.
<mgrwt>
<rscale>  0 0.77198976E+02</rscale>
<asrwt>0</asrwt>
<pdfrwt beam="1">  1        2 0.13837003E+00 0.18385400E+03</pdfrwt>
<pdfrwt beam="2">  1        2 0.17307428E+00 0.32415296E+02</pdfrwt>
<totfact> 0.12113748E+02</totfact>
</mgrwt>
</event>
<event>
13    1  0.1595792E-008  0.9358050E+02  0.7546771E-02  0.1351609E+00
          2   -1    0    0  502    0  0.00000000000E+00  0.00000000000E+00  0.14395706204E+04  0.14395706204E+04  0.00000000000E+00 0. -1.
          4   -1    0    0  503    0 -0.00000000000E+00 -0.00000000000E+00 -0.89763600480E+03  0.89763600480E+03  0.00000000000E+00 0. -1.
         24    2    1    2    0    0  0.67063662962E+02 -0.86534547434E+02 -0.20395795899E+03  0.24483536885E+03  0.79748015742E+02 0.  0.
         25    2    1    2    0    0 -0.18219301146E+03  0.35599019720E+02  0.62842430975E+03  0.66708635715E+03  0.12500204469E+03 0.  0.
         24    2    1    2    0    0 -0.12376338856E+02  0.15758940297E+02  0.36442095035E+02  0.91481731903E+02  0.81482286533E+02 0.  0.
        -13    1    5    5    0    0  0.15303398541E+02 -0.26088715501E+02  0.13919589134E+01  0.30277923195E+02  0.00000000000E+00 0.  1.
         14    1    5    5    0    0 -0.27679737397E+02  0.41847655798E+02  0.35050136121E+02  0.61203808707E+02  0.00000000000E+00 0. -1.
        -13    1    3    3    0    0  0.65576736897E+02 -0.92011907619E+02 -0.13675615796E+03  0.17739432433E+03  0.00000000000E+00 0.  1.
         14    1    3    3    0    0  0.14869260654E+01  0.54773601852E+01 -0.67201801031E+02  0.67441044517E+02  0.00000000000E+00 0. -1.
          5    1    4    4  501    0 -0.19859414569E+03  0.45382892993E+02  0.56141830314E+03  0.59725358331E+03  0.47000000000E+01 0. -1.
         -5    1    4    4    0  501  0.16401134221E+02 -0.97838732734E+01  0.67006006608E+02  0.69832773835E+02  0.47000000000E+01 0. -1.
          1    1    1    2  502    0  0.34470821299E+02  0.44457509151E+02  0.70279553985E+03  0.70504345857E+03  0.00000000000E+00 0. -1.
          3    1    1    2  503    0  0.93034866060E+02 -0.92809217345E+01 -0.62176937003E+03  0.62875970873E+03  0.00000000000E+00 0. -1.
<mgrwt>
<rscale>  0 0.72556458E+02</rscale>
<asrwt>0</asrwt>
<pdfrwt beam="1">  1        2 0.21170156E+00 0.56255734E+02</pdfrwt>
<pdfrwt beam="2">  1        4 0.13200529E+00 0.93580497E+02</pdfrwt>
<totfact> 0.40809555E+00</totfact>
</mgrwt>
</event>
<event>
13    1  0.1595792E-008  0.1112152E+03  0.7546771E-02  0.1312144E+00
          2   -1    0    0  503    0  0.00000000000E+00  0.00000000000E+00  0.97536395175E+03  0.97536395175E+03  0.00000000000E+00 0. -1.
          2   -1    0    0  502    0 -0.00000000000E+00 -0.00000000000E+00 -0.25636857162E+03  0.25636857162E+03  0.00000000000E+00 0. -1.
         24    2    1    2    0    0  0.42437612598E+02  0.21303373096E+02 -0.57051019902E+02  0.11095709714E+03  0.82473473712E+02 0.  0.
         25    2    1    2    0    0 -0.49681771997E+02 -0.11026419758E+03  0.29308243214E+03  0.34080621775E+03  0.12500037717E+03 0.  0.
         24    2    1    2    0    0 -0.29596033164E+02 -0.66402624947E+02  0.18230342952E+03  0.21103414500E+03  0.77560532237E+02 0.  0.
        -11    1    3    3    0    0  0.66120556165E+02  0.16221112653E+02 -0.53262647915E+02  0.86440511950E+02  0.00000000000E+00 0.  1.
         12    1    3    3    0    0 -0.23682943567E+02  0.50822604430E+01 -0.37883719870E+01  0.24516585193E+02  0.00000000000E+00 0. -1.
        -13    1    5    5    0    0 -0.34517152645E+02 -0.54507719064E+02  0.18661942957E+03  0.19745717703E+03  0.00000000000E+00 0.  1.
         14    1    5    5    0    0  0.49211194810E+01 -0.11894905883E+02 -0.43160000516E+01  0.13576967973E+02  0.00000000000E+00 0. -1.
          5    1    4    4  501    0  0.32504678337E+02 -0.69083787151E+01  0.24734567924E+02  0.41691349950E+02  0.47000000000E+01 0.  1.
         -5    1    4    4    0  501 -0.82186450334E+02 -0.10335581886E+03  0.26834786421E+03  0.29911486780E+03  0.47000000000E+01 0.  1.
          1    1    1    2  502    0  0.51846652600E+02  0.90147341596E+02 -0.11086407208E+03  0.15200480604E+03  0.00000000000E+00 0. -1.
          1    1    1    2  503    0 -0.15006460038E+02  0.65216107832E+02  0.41152461045E+03  0.41693025744E+03  0.00000000000E+00 0. -1.
<mgrwt>
<rscale>  0 0.86270266E+02</rscale>
<asrwt>0</asrwt>
<pdfrwt beam="1">  1        2 0.14343587E+00 0.66920360E+02</pdfrwt>
<pdfrwt beam="2">  1        2 0.37701261E-01 0.11121516E+03</pdfrwt>
<totfact> 0.64628800E+02</totfact>
</mgrwt>
</event>
<event>
13    1  0.1595792E-008  0.1519038E+03  0.7546771E-02  0.1259239E+00
          2   -1    0    0  502    0  0.00000000000E+00  0.00000000000E+00  0.19653945655E+04  0.19653945655E+04  0.00000000000E+00 0. -1.
          2   -1    0    0  503    0 -0.00000000000E+00 -0.00000000000E+00 -0.24392664872E+04  0.24392664872E+04  0.00000000000E+00 0. -1.
         24    2    1    2    0    0 -0.62954877088E+02  0.30966664525E+02 -0.64814553770E+02  0.12447722731E+03  0.79821067873E+02 0.  0.
         25    2    1    2    0    0  0.16873142122E+03 -0.15406092228E+03  0.19029088487E+03  0.32254856635E+03  0.12498758541E+03 0.  0.
         24    2    1    2    0    0  0.16876575943E+03 -0.10422982912E+02  0.52893041749E+03  0.56108198014E+03  0.80343523442E+02 0.  0.
        -13    1    3    3    0    0 -0.63143595002E+02  0.53756097787E+02 -0.45413734063E+02  0.94547548253E+02  0.00000000000E+00 0.  1.
         14    1    3    3    0    0  0.18871791471E+00 -0.22789433262E+02 -0.19400819706E+02  0.29929679052E+02  0.00000000000E+00 0. -1.
        -13    1    5    5    0    0  0.87078634664E+02  0.32810150112E+02  0.22732592442E+03  0.24563442445E+03  0.00000000000E+00 0.  1.
         14    1    5    5    0    0  0.81687124766E+02 -0.43233133024E+02  0.30160449308E+03  0.31544755569E+03  0.00000000000E+00 0. -1.
          5    1    4    4  501    0 -0.11362701952E+02  0.10568774364E+02  0.14830140796E+02  0.21973462705E+02  0.47000000000E+01 0. -1.
         -5    1    4    4    0  501  0.18009412318E+03 -0.16462969664E+03  0.17546074407E+03  0.30057510364E+03  0.47000000000E+01 0. -1.
          1    1    1    2  502    0 -0.20599304359E+03  0.90924093359E+02  0.11222309152E+04  0.11445971133E+04  0.00000000000E+00 0. -1.
          1    1    1    2  503    0 -0.68549259977E+02  0.42593147304E+02 -0.22505095855E+04  0.22519561656E+04  0.00000000000E+00 0. -1.
<mgrwt>
<rscale>  0 0.11072165E+03</rscale>
<asrwt>0</asrwt>
<pdfrwt beam="1">  1        2 0.28902862E+00 0.15190381E+03</pdfrwt>
<pdfrwt beam="2">  1        2 0.35871566E+00 0.80704258E+02</pdfrwt>
<totfact> 0.81893889E+00</totfact>
</mgrwt>
</event>
<event>
13    1  0.1595792E-008  0.3430129E+02  0.7546771E-02  0.1584315E+00
          2   -1    0    0  502    0  0.00000000000E+00  0.00000000000E+00  0.44872911819E+04  0.44872911819E+04  0.00000000000E+00 0. -1.
          2   -1    0    0  503    0 -0.00000000000E+00 -0.00000000000E+00 -0.11258242598E+04  0.11258242598E+04  0.00000000000E+00 0. -1.
         24    2    1    2    0    0 -0.23858783221E+03 -0.69400134522E+02 -0.88181078879E+02  0.27627779930E+03  0.82540822378E+02 0.  0.
         25    2    1    2    0    0  0.27946281551E+03  0.16523521505E+02  0.25775271206E+03  0.40054318445E+03  0.12500356004E+03 0.  0.
         24    2    1    2    0    0 -0.92314085053E+02  0.57194081264E+02  0.52478633051E+03  0.54185222135E+03  0.80062999326E+02 0.  0.
        -13    1    5    5    0    0 -0.57417887869E+02 -0.45056994921E+01  0.15547744638E+03  0.16580214567E+03  0.00000000000E+00 0.  1.
         14    1    5    5    0    0 -0.34896197184E+02  0.61699780756E+02  0.36930888413E+03  0.37605007568E+03  0.00000000000E+00 0. -1.
        -13    1    3    3    0    0 -0.14886019192E+03 -0.13650099750E+01 -0.43056006409E+02  0.15496786660E+03  0.00000000000E+00 0.  1.
         14    1    3    3    0    0 -0.89727640290E+02 -0.68035124547E+02 -0.45125072470E+02  0.12130993269E+03  0.00000000000E+00 0. -1.
          5    1    4    4  501    0  0.12349571723E+03  0.46982758653E+02  0.55765532618E+02  0.14349375043E+03  0.47000000000E+01 0.  1.
         -5    1    4    4    0  501  0.15596709828E+03 -0.30459237148E+02  0.20198717944E+03  0.25704943402E+03  0.47000000000E+01 0.  1.
          1    1    1    2  502    0  0.27727910049E+02 -0.20187312571E+02  0.35304566313E+04  0.35306232297E+04  0.00000000000E+00 0. -1.
          1    1    1    2  503    0  0.23711191714E+02  0.15869844324E+02 -0.86334767288E+03  0.86381900699E+03  0.00000000000E+00 0. -1.
<mgrwt>
<rscale>  0 0.31283911E+02</rscale>
<asrwt>0</asrwt>
<pdfrwt beam="1">  1        2 0.65989576E+00 0.34301295E+02</pdfrwt>
<pdfrwt beam="2">  1        2 0.16556239E+00 0.28531957E+02</pdfrwt>
<totfact> 0.17987991E+00</totfact>
</mgrwt>
</event>
<event>
13    1  0.1595792E-008  0.3723954E+02  0.7546771E-02  0.1530599E+00
          2   -1    0    0  502    0  0.00000000000E+00  0.00000000000E+00  0.50316809746E+04  0.50316809746E+04  0.00000000000E+00 0. -1.
          2   -1    0    0  503    0 -0.00000000000E+00 -0.00000000000E+00 -0.11817554022E+04  0.11817554022E+04  0.00000000000E+00 0. -1.
         24    2    1    2    0    0  0.56349885270E+03  0.25925172104E+03 -0.83581887519E+03  0.10439831829E+04  0.81026428725E+02 0.  0.
         25    2    1    2    0    0  0.20024473854E+02 -0.37344320139E+03  0.11758232693E+04  0.12401812678E+04  0.12501364808E+03 0.  0.
         24    2    1    2    0    0 -0.54542582980E+03  0.95127099382E+02  0.28087608243E+04  0.28632860208E+04  0.52258664063E+02 0.  0.
        -11    1    3    3    0    0  0.32207407978E+03  0.19184775669E+03 -0.50301335742E+03  0.62734337676E+03  0.00000000000E+00 0.  1.
         12    1    3    3    0    0  0.24142477292E+03  0.67403964351E+02 -0.33280551777E+03  0.41663980612E+03  0.00000000000E+00 0. -1.
        -11    1    5    5    0    0 -0.33042298169E+03  0.31616745702E+02  0.16789843783E+04  0.17114810860E+04  0.00000000000E+00 0.  1.
         12    1    5    5    0    0 -0.21500284811E+03  0.63510353680E+02  0.11297764460E+04  0.11518049347E+04  0.00000000000E+00 0. -1.
          5    1    4    4  501    0 -0.21280546830E+02 -0.21056623394E+03  0.48474492107E+03  0.52895248280E+03  0.47000000000E+01 0. -1.
         -5    1    4    4    0  501  0.41305020684E+02 -0.16287696745E+03  0.69107834826E+03  0.71122878505E+03  0.47000000000E+01 0. -1.
          1    1    1    2  502    0 -0.32449301231E+02 -0.17750185714E+02  0.88127996703E+03  0.88205578426E+03  0.00000000000E+00 0. -1.
          1    1    1    2  503    0 -0.56481955270E+01  0.36814566676E+02 -0.18011961307E+03  0.18393012110E+03  0.00000000000E+00 0. -1.
<mgrwt>
<rscale>  0 0.37112972E+02</rscale>
<asrwt>0</asrwt>
<pdfrwt beam="1">  1        2 0.73995308E+00 0.36986839E+02</pdfrwt>
<pdfrwt beam="2">  1        2 0.17378756E+00 0.37239535E+02</pdfrwt>
<totfact> 0.55773657E-01</totfact>
</mgrwt>
</event>
<event>
13    1  0.3186451E-008  0.1585777E+03  0.7546771E-02  0.1353755E+00
          2   -1    0    0  503    0  0.00000000000E+00  0.00000000000E+00  0.12166880625E+04  0.12166880625E+04  0.00000000000E+00 0. -1.
          2   -1    0    0  502    0 -0.00000000000E+00 -0.00000000000E+00 -0.13821029729E+04  0.13821029729E+04  0.00000000000E+00 0. -1.
         24    2    1    2    0    0 -0.15523177880E+02 -0.61268255645E+01 -0.12387292737E+03  0.14858602580E+03  0.80341756796E+02 0.  0.
         25    2    1    2    0    0 -0.17418697560E+03 -0.14743301843E+03 -0.49544486726E+03  0.55961508984E+03  0.12500333953E+03 0.  0.
         24    2    1    2    0    0  0.77329135570E+02  0.36743849924E+02  0.13506454726E+03  0.17952229983E+03  0.81583812697E+02 0.  0.
        -11    1    3    3    0    0  0.31337824209E+02  0.92569312066E+01 -0.46629546795E+02  0.56939130972E+02  0.00000000000E+00 0.  1.
         12    1    3    3    0    0 -0.46861002089E+02 -0.15383756771E+02 -0.77243380575E+02  0.91646894829E+02  0.00000000000E+00 0. -1.
        -13    1    5    5    0    0  0.36653175065E+02  0.60493199534E+02  0.88461040440E+02  0.11326181222E+03  0.00000000000E+00 0.  1.
         14    1    5    5    0    0  0.40675960505E+02 -0.23749349611E+02  0.46603506821E+02  0.66260487607E+02  0.00000000000E+00 0. -1.
          5    1    4    4  501    0 -0.15005046564E+03 -0.80027345282E+02 -0.23928737109E+03  0.29359845741E+03  0.47000000000E+01 0.  1.
         -5    1    4    4    0  501 -0.24136509956E+02 -0.67405673152E+02 -0.25615749617E+03  0.26601663243E+03  0.47000000000E+01 0.  1.
          1    1    1    2  502    0  0.31306803718E+02  0.90835790093E+01 -0.69125097864E+03  0.69201917808E+03  0.00000000000E+00 0. -1.
          1    1    1    2  503    0  0.81074214189E+02  0.10773241506E+03  0.10100893156E+04  0.10190484419E+04  0.00000000000E+00 0. -1.
<mgrwt>
<rscale>  0 0.71897927E+02</rscale>
<asrwt>0</asrwt>
<pdfrwt beam="1">  1        2 0.17892472E+00 0.15857775E+03</pdfrwt>
<pdfrwt beam="2">  1        2 0.20325044E+00 0.32597966E+02</pdfrwt>
<totfact> 0.67448855E+01</totfact>
</mgrwt>
</event>
<event>
13    1  0.1595792E-008  0.1209817E+03  0.7546771E-02  0.1312737E+00
          2   -1    0    0  503    0  0.00000000000E+00  0.00000000000E+00  0.13111166249E+04  0.13111166249E+04  0.00000000000E+00 0. -1.
          2   -1    0    0  502    0 -0.00000000000E+00 -0.00000000000E+00 -0.14570483351E+04  0.14570483351E+04  0.00000000000E+00 0. -1.
         24    2    1    2    0    0  0.49846155982E+00 -0.13076471336E+02 -0.68103862644E+02  0.10568708713E+03  0.79752001313E+02 0.  0.
         25    2    1    2    0    0  0.52963398967E+02 -0.17313215983E+03 -0.80570203488E+02  0.23430471520E+03  0.12500910157E+03 0.  0.
         24    2    1    2    0    0 -0.50728906319E+01 -0.66979345928E+02  0.12847178768E+03  0.16574145962E+03  0.80332211518E+02 0.  0.
        -11    1    3    3    0    0 -0.49535982342E+01 -0.45890492230E+02 -0.29731057007E+02  0.54903653461E+02  0.00000000000E+00 0.  1.
         12    1    3    3    0    0  0.54520597940E+01  0.32814020894E+02 -0.38372805637E+02  0.50783433674E+02  0.00000000000E+00 0. -1.
        -11    1    5    5    0    0 -0.37723665879E+02 -0.12557235160E+02  0.63473401491E+02  0.74897475385E+02  0.00000000000E+00 0.  1.
         12    1    5    5    0    0  0.32650775247E+02 -0.54422110768E+02  0.64998386188E+02  0.90843984235E+02  0.00000000000E+00 0. -1.
          5    1    4    4  501    0  0.18944584689E+02 -0.17432106845E+03 -0.37793834475E+02  0.17943577157E+03  0.47000000000E+01 0.  1.
         -5    1    4    4    0  501  0.34018814278E+02  0.11889086195E+01 -0.42776369014E+02  0.54868943626E+02  0.47000000000E+01 0.  1.
          1    1    1    2  502    0 -0.17569128588E+02  0.58612200248E+02 -0.11842022958E+04  0.11857820802E+04  0.00000000000E+00 0. -1.
          1    1    1    2  503    0 -0.30819841307E+02  0.19457577685E+03  0.10584728640E+04  0.10766496178E+04  0.00000000000E+00 0. -1.
<mgrwt>
<rscale>  0 0.86039076E+02</rscale>
<asrwt>0</asrwt>
<pdfrwt beam="1">  1        2 0.19281127E+00 0.12098174E+03</pdfrwt>
<pdfrwt beam="2">  1        2 0.21427181E+00 0.61188760E+02</pdfrwt>
<totfact> 0.53560617E+01</totfact>
</mgrwt>
</event>
<event>
13    1  0.1595792E-008  0.5069371E+02  0.7546771E-02  0.1639604E+00
         -1   -1    0    0    0  501 -0.00000000000E+00  0.00000000000E+00  0.20240839220E+04  0.20240839220E+04  0.00000000000E+00 0.  1.
          2   -1    0    0  503    0  0.00000000000E+00 -0.00000000000E+00 -0.68915935980E+03  0.68915935980E+03  0.00000000000E+00 0. -1.
         24    2    1    2    0    0  0.32095443399E+02 -0.39609387439E+02  0.54429964107E+03  0.55259548002E+03  0.80626572631E+02 0.  0.
         25    2    1    2    0    0  0.17201739794E+03 -0.15633406600E+03  0.68168689314E+01  0.26401257764E+03  0.12500338422E+03 0.  0.
         24    2    1    2    0    0 -0.24357205622E+03  0.18546992697E+03 -0.24198147939E+03  0.40085884333E+03  0.91686070503E+02 0.  0.
        -11    1    5    5    0    0 -0.17904503608E+03  0.10533886991E+03 -0.11503918749E+03  0.23746034851E+03  0.00000000000E+00 0.  1.
         12    1    5    5    0    0 -0.64527020146E+02  0.80131057061E+02 -0.12694229191E+03  0.16339849482E+03  0.00000000000E+00 0. -1.
        -13    1    3    3    0    0  0.11605205368E+02 -0.62662679206E+02  0.33121439097E+03  0.33728958618E+03  0.00000000000E+00 0.  1.
         14    1    3    3    0    0  0.20490238031E+02  0.23053291767E+02  0.21308525009E+03  0.21530589384E+03  0.00000000000E+00 0. -1.
          5    1    4    4  502    0  0.13611447044E+03 -0.70967905185E+02 -0.42005091333E+02  0.15921717975E+03  0.47000000000E+01 0.  1.
         -5    1    4    4    0  502  0.35902927493E+02 -0.85366160810E+02  0.48821960265E+02  0.10479539789E+03  0.47000000000E+01 0.  1.
          1    1    1    2  503    0 -0.56304106939E+01 -0.12721482990E+02 -0.23427717786E+03  0.23468986710E+03  0.00000000000E+00 0. -1.
         -2    1    1    2    0  501  0.45089625579E+02  0.23195009452E+02  0.12600667095E+04  0.12610865137E+04  0.00000000000E+00 0.  1.
<mgrwt>
<rscale>  0 0.26556350E+02</rscale>
<asrwt>0</asrwt>
<pdfrwt beam="2">  1        2 0.10134697E+00 0.13911781E+02</pdfrwt>
<pdfrwt beam="1">  1       -1 0.29765940E+00 0.50693706E+02</pdfrwt>
<totfact> 0.27735777E+00</totfact>
</mgrwt>
</event>
<event>
13    1  0.1595792E-008  0.4352501E+02  0.7546771E-02  0.1503290E+00
          2   -1    0    0  503    0  0.00000000000E+00  0.00000000000E+00  0.80565042466E+03  0.80565042466E+03  0.00000000000E+00 0. -1.
          2   -1    0    0  502    0 -0.00000000000E+00 -0.00000000000E+00 -0.11679844443E+04  0.11679844443E+04  0.00000000000E+00 0. -1.
         24    2    1    2    0    0 -0.10829722068E+02 -0.44714748125E+02 -0.42856503137E+02  0.10215299247E+03  0.80510014468E+02 0.  0.
         25    2    1    2    0    0 -0.83346660921E+02  0.16272155854E+03 -0.16074970063E+03  0.27367173014E+03  0.12502311036E+03 0.  0.
         24    2    1    2    0    0  0.12073973362E+03 -0.10224229367E+03  0.43489510874E+03  0.46947602731E+03  0.79008953444E+02 0.  0.
        -11    1    5    5    0    0  0.12173115166E+02  0.13467174442E+02  0.47016859880E+02  0.50399748346E+02  0.00000000000E+00 0.  1.
         12    1    5    5    0    0  0.10856661846E+03 -0.11570946811E+03  0.38787824886E+03  0.41907627897E+03  0.00000000000E+00 0. -1.
        -11    1    3    3    0    0  0.19672105417E+02  0.10592209952E+02 -0.30479613745E+02  0.37791447409E+02  0.00000000000E+00 0.  1.
         12    1    3    3    0    0 -0.30501827485E+02 -0.55306958078E+02 -0.12376889391E+02  0.64361545062E+02  0.00000000000E+00 0. -1.
          5    1    4    4  501    0  0.31835628378E+02  0.28294155104E+02 -0.44847951566E+02  0.62028180748E+02  0.47000000000E+01 0.  1.
         -5    1    4    4    0  501 -0.11518228930E+03  0.13442740343E+03 -0.11590174906E+03  0.21164354939E+03  0.47000000000E+01 0.  1.
          1    1    1    2  502    0 -0.25807127823E+02  0.27912623193E+02 -0.85877083392E+03  0.85961181215E+03  0.00000000000E+00 0. -1.
          1    1    1    2  503    0 -0.75622281196E+00 -0.43677139937E+02  0.26514790929E+03  0.26872230690E+03  0.00000000000E+00 0. -1.
<mgrwt>
<rscale>  0 0.40676690E+02</rscale>
<asrwt>0</asrwt>
<pdfrwt beam="1">  1        2 0.11847800E+00 0.43525012E+02</pdfrwt>
<pdfrwt beam="2">  1        2 0.17176242E+00 0.38014765E+02</pdfrwt>
<totfact> 0.15551147E+02</totfact>
</mgrwt>
</event>
<event>
13    1  0.1595792E-008  0.1224470E+03  0.7546771E-02  0.1272237E+00
          2   -1    0    0  503    0  0.00000000000E+00  0.00000000000E+00  0.20961504683E+04  0.20961504683E+04  0.00000000000E+00 0. -1.
          2   -1    0    0  502    0 -0.00000000000E+00 -0.00000000000E+00 -0.69020973283E+03  0.69020973283E+03  0.00000000000E+00 0. -1.
         24    2    1    2    0    0 -0.46151158271E+02  0.58986559480E+02 -0.96851680329E+02  0.14720584129E+03  0.81731071921E+02 0.  0.
         25    2    1    2    0    0 -0.24674436420E+02 -0.21623999155E+03 -0.91668620080E+02  0.26720397430E+03  0.12500506476E+03 0.  0.
         24    2    1    2    0    0 -0.42843099855E+02 -0.26109873497E+01  0.11982892629E+03  0.15052559759E+03  0.80353192172E+02 0.  0.
        -11    1    3    3    0    0 -0.39671016043E+02  0.70245751640E+02 -0.42225659913E+02  0.91056364371E+02  0.00000000000E+00 0.  1.
         12    1    3    3    0    0 -0.64801422277E+01 -0.11259192160E+02 -0.54626020417E+02  0.56149476916E+02  0.00000000000E+00 0. -1.
        -13    1    5    5    0    0 -0.33713164862E+02  0.33500680853E+02  0.38830897756E+02  0.61373542534E+02  0.00000000000E+00 0.  1.
         14    1    5    5    0    0 -0.91299349933E+01 -0.36111668203E+02  0.80998028536E+02  0.89152055053E+02  0.00000000000E+00 0. -1.
          5    1    4    4  501    0 -0.46735100988E+02 -0.69204705987E+02  0.13911959540E+02  0.84788522887E+02  0.47000000000E+01 0.  1.
         -5    1    4    4    0  501  0.22060664568E+02 -0.14703528556E+03 -0.10558057962E+03  0.18241545141E+03  0.47000000000E+01 0.  1.
          1    1    1    2  502    0  0.94218848862E+02  0.73817538283E+02 -0.36271894273E+03  0.38195713353E+03  0.00000000000E+00 0. -1.
          1    1    1    2  503    0  0.19449845684E+02  0.86046881135E+02  0.18373510523E+04  0.18394676544E+04  0.00000000000E+00 0. -1.
<mgrwt>
<rscale>  0 0.10393262E+03</rscale>
<asrwt>0</asrwt>
<pdfrwt beam="1">  1        2 0.30825742E+00 0.88217698E+02</pdfrwt>
<pdfrwt beam="2">  1        2 0.10150143E+00 0.12244696E+03</pdfrwt>
<totfact> 0.59881252E+01</totfact>
</mgrwt>
</event>
<event>
13    1  0.1595792E-008  0.6223004E+02  0.7546771E-02  0.1402652E+00
          2   -1    0    0  502    0  0.00000000000E+00  0.00000000000E+00  0.22931248350E+04  0.22931248350E+04  0.00000000000E+00 0. -1.
          2   -1    0    0  503    0 -0.00000000000E+00 -0.00000000000E+00 -0.92905399546E+03  0.92905399546E+03  0.00000000000E+00 0. -1.
         24    2    1    2    0    0  0.12013208243E+03 -0.81592829882E+01 -0.17988574065E+03  0.23092469146E+03  0.80430356875E+02 0.  0.
         25    2    1    2    0    0 -0.19513926515E+03 -0.12297821959E+02  0.49191948408E+03  0.54391225389E+03  0.12500076753E+03 0.  0.
         24    2    1    2    0    0 -0.30385648169E+02  0.54267871998E+02  0.15741911696E+03  0.18833102747E+03  0.82580312271E+02 0.  0.
        -11    1    5    5    0    0 -0.44205023711E+02 -0.17180479964E+01  0.84359281606E+02  0.95255048177E+02  0.00000000000E+00 0.  1.
         12    1    5    5    0    0  0.13819375542E+02  0.55985919994E+02  0.73059835358E+02  0.93075979288E+02  0.00000000000E+00 0. -1.
        -11    1    3    3    0    0  0.61016806466E+02  0.28239276014E+02 -0.50488678602E+02  0.84080996950E+02  0.00000000000E+00 0.  1.
         12    1    3    3    0    0  0.59115275966E+02 -0.36398559002E+02 -0.12939706205E+03  0.14684369451E+03  0.00000000000E+00 0. -1.
          5    1    4    4  501    0 -0.13944134282E+03 -0.65570501587E+02  0.30747047167E+03  0.34395284519E+03  0.47000000000E+01 0. -1.
         -5    1    4    4    0  501 -0.55697922322E+02  0.53272679628E+02  0.18444901241E+03  0.19995940869E+03  0.47000000000E+01 0. -1.
          1    1    1    2  502    0  0.43259392494E+02 -0.35062592544E+02  0.15749060074E+04  0.15758901271E+04  0.00000000000E+00 0. -1.
          1    1    1    2  503    0  0.62133438388E+02  0.12518254931E+01 -0.68028802823E+03  0.68312073061E+03  0.00000000000E+00 0. -1.
<mgrwt>
<rscale>  0 0.58866350E+02</rscale>
<asrwt>0</asrwt>
<pdfrwt beam="1">  1        2 0.33722424E+00 0.55684472E+02</pdfrwt>
<pdfrwt beam="2">  1        2 0.13662559E+00 0.62230044E+02</pdfrwt>
<totfact> 0.36507484E+01</totfact>
</mgrwt>
</event>
<event>
13    1  0.1595792E-008  0.7151094E+02  0.7546771E-02  0.1410410E+00
          2   -1    0    0  503    0  0.00000000000E+00  0.00000000000E+00  0.75870283853E+03  0.75870283853E+03  0.00000000000E+00 0. -1.
          2   -1    0    0  502    0 -0.00000000000E+00 -0.00000000000E+00 -0.11770889942E+04  0.11770889942E+04  0.00000000000E+00 0. -1.
         24    2    1    2    0    0 -0.44895745388E+02 -0.21633369759E+02 -0.16712144810E+03  0.19142316939E+03  0.78927946414E+02 0.  0.
         25    2    1    2    0    0  0.87106307575E+02 -0.35792872691E+02 -0.41620792923E+02  0.16194644298E+03  0.12500288571E+03 0.  0.
         24    2    1    2    0    0 -0.70609027054E+02  0.58058210363E+02 -0.53149336515E+02  0.13200427226E+03  0.79018260116E+02 0.  0.
        -11    1    3    3    0    0 -0.31147143563E+02 -0.36825976580E+02 -0.39997688597E+02  0.62658696095E+02  0.00000000000E+00 0.  1.
         12    1    3    3    0    0 -0.13748601825E+02  0.15192606821E+02 -0.12712375950E+03  0.12876447330E+03  0.00000000000E+00 0. -1.
        -13    1    5    5    0    0 -0.30574360688E+02 -0.17041268754E+02 -0.90537068014E+01  0.36154750436E+02  0.00000000000E+00 0.  1.
         14    1    5    5    0    0 -0.40034666366E+02  0.75099479118E+02 -0.44095629713E+02  0.95849521828E+02  0.00000000000E+00 0. -1.
          5    1    4    4  501    0 -0.28669422413E+02  0.26482885427E+01  0.78692341729E+01  0.30215295137E+02  0.47000000000E+01 0.  1.
         -5    1    4    4    0  501  0.11577572999E+03 -0.38441161234E+02 -0.49490027096E+02  0.13173114785E+03  0.47000000000E+01 0.  1.
          1    1    1    2  502    0 -0.39308648595E+02  0.23106946947E+02 -0.80081651847E+03  0.80211358118E+03  0.00000000000E+00 0. -1.
          1    1    1    2  503    0  0.67707113463E+02 -0.23738914860E+02  0.64432194036E+03  0.64830436689E+03  0.00000000000E+00 0. -1.
<mgrwt>
<rscale>  0 0.57102502E+02</rscale>
<asrwt>0</asrwt>
<pdfrwt beam="1">  1        2 0.11157395E+00 0.71510941E+02</pdfrwt>
<pdfrwt beam="2">  1        2 0.17310132E+00 0.45597158E+02</pdfrwt>
<totfact> 0.16040827E+02</totfact>
</mgrwt>
</event>
<event>
13    1  0.1595792E-008  0.1481305E+03  0.7546771E-02  0.1357826E+00
          2   -1    0    0  503    0  0.00000000000E+00  0.00000000000E+00  0.34494477727E+04  0.34494477727E+04  0.00000000000E+00 0. -1.
          2   -1    0    0  502    0 -0.00000000000E+00 -0.00000000000E+00 -0.10373691308E+04  0.10373691308E+04  0.00000000000E+00 0. -1.
         24    2    1    2    0    0 -0.29550232526E+02  0.90985573036E+01  0.34241585061E+02  0.10313559957E+03  0.92241345194E+02 0.  0.
         25    2    1    2    0    0  0.64408471194E+02 -0.11613431437E+03  0.69474038478E+03  0.71827582257E+03  0.12498129824E+03 0.  0.
         24    2    1    2    0    0  0.30134694943E+02  0.12619924604E+02  0.11546779446E+03  0.14427833703E+03  0.80100341085E+02 0.  0.
        -11    1    3    3    0    0  0.39469411809E+01  0.41809685214E+02 -0.46735774129E+01  0.42254827514E+02  0.00000000000E+00 0.  1.
         12    1    3    3    0    0 -0.33497173707E+02 -0.32711127910E+02  0.38915162474E+02  0.60880772054E+02  0.00000000000E+00 0. -1.
        -13    1    5    5    0    0 -0.15517862216E+02 -0.23590665413E+02  0.37813395637E+02  0.47192970155E+02  0.00000000000E+00 0.  1.
         14    1    5    5    0    0  0.45652557159E+02  0.36210590017E+02  0.77654398819E+02  0.97085366871E+02  0.00000000000E+00 0. -1.
          5    1    4    4  501    0  0.34867354011E+02  0.21056493333E+02  0.18961330606E+03  0.19399588687E+03  0.47000000000E+01 0.  1.
         -5    1    4    4    0  501  0.29541117184E+02 -0.13719080770E+03  0.50512707873E+03  0.52427993571E+03  0.47000000000E+01 0.  1.
          1    1    1    2  502    0 -0.81828349101E+02  0.12362809373E+03 -0.97101079541E+03  0.98226358432E+03  0.00000000000E+00 0. -1.
          1    1    1    2  503    0  0.16835415490E+02 -0.29212261273E+02  0.25386396730E+04  0.25388635601E+04  0.00000000000E+00 0. -1.
<mgrwt>
<rscale>  0 0.70671133E+02</rscale>
<asrwt>0</asrwt>
<pdfrwt beam="1">  1        2 0.50727173E+00 0.33716278E+02</pdfrwt>
<pdfrwt beam="2">  1        2 0.15255428E+00 0.14813049E+03</pdfrwt>
<totfact> 0.85583985E+00</totfact>
</mgrwt>
</event>
<event>
13    1  0.1595792E-008  0.5656415E+02  0.7546771E-02  0.1502279E+00
          2   -1    0    0  503    0  0.00000000000E+00  0.00000000000E+00  0.86638711677E+03  0.86638711677E+03  0.00000000000E+00 0. -1.
          2   -1    0    0  502    0 -0.00000000000E+00 -0.00000000000E+00 -0.21207838053E+04  0.21207838053E+04  0.00000000000E+00 0. -1.
         24    2    1    2    0    0  0.73741128263E+01  0.17783903314E+03 -0.30779715754E+03  0.36499988094E+03  0.82490748866E+02 0.  0.
         25    2    1    2    0    0  0.60110873479E+01 -0.23238818431E+03 -0.51028806390E+03  0.57450831727E+03  0.12500198825E+03 0.  0.
         24    2    1    2    0    0 -0.24741312631E+02 -0.30652206142E+02 -0.13521392030E+03  0.16276556526E+03  0.81597393956E+02 0.  0.
        -11    1    5    5    0    0 -0.48704369152E+02 -0.31162463250E+02 -0.12289307317E+03  0.13581576537E+03  0.00000000000E+00 0.  1.
         12    1    5    5    0    0  0.23963056521E+02  0.51025710813E+00 -0.12320847129E+02  0.26949799890E+02  0.00000000000E+00 0. -1.
        -13    1    3    3    0    0 -0.22931910913E+02  0.15817923258E+03 -0.24411678993E+03  0.29178682164E+03  0.00000000000E+00 0.  1.
         14    1    3    3    0    0  0.30306023740E+02  0.19659800561E+02 -0.63680367615E+02  0.73213059304E+02  0.00000000000E+00 0. -1.
          5    1    4    4  501    0 -0.40169126918E+02 -0.88634840837E+02 -0.30116357946E+03  0.31653007024E+03  0.47000000000E+01 0. -1.
         -5    1    4    4    0  501  0.46180214266E+02 -0.14375334347E+03 -0.20912448444E+03  0.25797824703E+03  0.47000000000E+01 0. -1.
          1    1    1    2  502    0  0.50462977974E+01  0.29019268555E+02 -0.10917894328E+04  0.10921866822E+04  0.00000000000E+00 0. -1.
          1    1    1    2  503    0  0.63098146597E+01  0.56182088752E+02  0.79069188603E+03  0.79271047646E+03  0.00000000000E+00 0. -1.
<mgrwt>
<rscale>  0 0.40817688E+02</rscale>
<asrwt>0</asrwt>
<pdfrwt beam="1">  1        2 0.12740987E+00 0.56564150E+02</pdfrwt>
<pdfrwt beam="2">  1        2 0.31187997E+00 0.29454763E+02</pdfrwt>
<totfact> 0.52095108E+01</totfact>
</mgrwt>
</event>
<event>
13    1  0.1595792E-008  0.5592776E+02  0.7546771E-02  0.1505548E+00
         -1   -1    0    0    0  501 -0.00000000000E+00  0.00000000000E+00  0.11529268165E+03  0.11529268165E+03  0.00000000000E+00 0.  1.
          2   -1    0    0  503    0  0.00000000000E+00 -0.00000000000E+00 -0.20859896630E+04  0.20859896630E+04  0.00000000000E+00 0. -1.
         24    2    1    2    0    0  0.79861292002E+00 -0.19861640138E+02 -0.20000976223E+02  0.85693523431E+02  0.80921062626E+02 0.  0.
         25    2    1    2    0    0 -0.42744602743E+02 -0.39490437982E+02 -0.97566951894E+02  0.16891357718E+03  0.12500356274E+03 0.  0.
         24    2    1    2    0    0  0.28039617748E+02 -0.25439104748E+01 -0.42516340329E+03  0.43351249180E+03  0.79852798370E+02 0.  0.
        -11    1    3    3    0    0 -0.41042440103E+01  0.30686595508E+02 -0.15735632155E+02  0.34729268378E+02  0.00000000000E+00 0.  1.
         12    1    3    3    0    0  0.49028569303E+01 -0.50548235646E+02 -0.42653440679E+01  0.50964255053E+02  0.00000000000E+00 0. -1.
        -11    1    5    5    0    0  0.48845952922E+02 -0.23666403842E+02 -0.30131441575E+03  0.30616401312E+03  0.00000000000E+00 0.  1.
         12    1    5    5    0    0 -0.20806335174E+02  0.21122493367E+02 -0.12384898754E+03  0.12734847869E+03  0.00000000000E+00 0. -1.
          5    1    4    4  502    0 -0.77762155318E+02 -0.80323371188E+01 -0.92704328163E+02  0.12135754488E+03  0.47000000000E+01 0.  1.
         -5    1    4    4    0  502  0.35017552575E+02 -0.31458100863E+02 -0.48626237311E+01  0.47556032297E+02  0.47000000000E+01 0.  1.
          1    1    1    2  503    0  0.35943963707E+02  0.42843300896E+02 -0.14649869449E+04  0.14660539778E+04  0.00000000000E+00 0. -1.
         -2    1    1    2    0  501 -0.22037591633E+02  0.19052687699E+02  0.37021294956E+02  0.47108774488E+02  0.00000000000E+00 0.  1.
<mgrwt>
<rscale>  0 0.40364277E+02</rscale>
<asrwt>0</asrwt>
<pdfrwt beam="2">  1        2 0.30676316E+00 0.55927758E+02</pdfrwt>
<pdfrwt beam="1">  1       -1 0.16954808E-01 0.29131776E+02</pdfrwt>
<totfact> 0.24120583E+02</totfact>
</mgrwt>
</event>
<event>
13    1  0.1595792E-008  0.1590058E+03  0.7546771E-02  0.1318947E+00
          2   -1    0    0  502    0  0.00000000000E+00  0.00000000000E+00  0.10757073811E+04  0.10757073811E+04  0.00000000000E+00 0. -1.
          2   -1    0    0  503    0 -0.00000000000E+00 -0.00000000000E+00 -0.17073628094E+04  0.17073628094E+04  0.00000000000E+00 0. -1.
         24    2    1    2    0    0 -0.10361853046E+03 -0.15691326913E+03 -0.15069163991E+03  0.25555489296E+03  0.85098525801E+02 0.  0.
         25    2    1    2    0    0  0.54879475838E+01  0.81427106059E+02  0.20242278896E+03  0.25151531256E+03  0.12499790316E+03 0.  0.
         24    2    1    2    0    0  0.22125386145E+02 -0.18135275584E+02  0.42350871913E+03  0.43537725428E+03  0.96826119556E+02 0.  0.
        -11    1    5    5    0    0 -0.74632489581E+00 -0.55285803724E+02  0.27903826600E+03  0.28446340887E+03  0.00000000000E+00 0.  1.
         12    1    5    5    0    0  0.22871711040E+02  0.37150528140E+02  0.14447045313E+03  0.15091384540E+03  0.00000000000E+00 0. -1.
        -11    1    3    3    0    0 -0.10949665441E+03 -0.10171679937E+03 -0.12280846877E+03  0.19343666820E+03  0.00000000000E+00 0.  1.
         12    1    3    3    0    0  0.58781239510E+01 -0.55196469758E+02 -0.27883171144E+02  0.62118224766E+02  0.00000000000E+00 0. -1.
          5    1    4    4  501    0  0.34945389758E+01 -0.51587346910E+01 -0.15286720763E+02  0.17163862559E+02  0.47000000000E+01 0.  1.
         -5    1    4    4    0  501  0.19934086079E+01  0.86585840750E+02  0.21770950972E+03  0.23435145000E+03  0.47000000000E+01 0.  1.
          1    1    1    2  502    0  0.10066748253E+01 -0.44016357758E+02  0.36135604541E+03  0.36402835700E+03  0.00000000000E+00 0. -1.
          1    1    1    2  503    0  0.74998521907E+02  0.13763779641E+03 -0.14682513419E+04  0.14765943736E+04  0.00000000000E+00 0. -1.
<mgrwt>
<rscale>  0 0.83670092E+02</rscale>
<asrwt>0</asrwt>
<pdfrwt beam="1">  1        2 0.15819226E+00 0.44027868E+02</pdfrwt>
<pdfrwt beam="2">  1        2 0.25108276E+00 0.15900576E+03</pdfrwt>
<totfact> 0.52772016E+01</totfact>
</mgrwt>
</event>
<event>
13    1  0.1595792E-008  0.6721791E+02  0.7546771E-02  0.1388506E+00
          2   -1    0    0  503    0  0.00000000000E+00  0.00000000000E+00  0.36856050110E+04  0.36856050110E+04  0.00000000000E+00 0. -1.
         -1   -1    0    0    0  501 -0.00000000000E+00 -0.00000000000E+00 -0.31306217907E+03  0.31306217907E+03  0.00000000000E+00 0.  1.
         24    2    1    2    0    0  0.11167209225E+03 -0.98854956115E+01  0.16847859306E+03  0.21777973861E+03  0.80464893069E+02 0.  0.
         25    2    1    2    0    0 -0.13599414611E+03  0.36282684851E+02  0.38145683546E+03  0.42537067781E+03  0.12498021933E+03 0.  0.
         24    2    1    2    0    0 -0.38355101641E+02  0.10913282229E+02  0.97572546649E+03  0.97982163515E+03  0.80125134635E+02 0.  0.
        -11    1    3    3    0    0 -0.71113511818E+01  0.14792500736E+02  0.15953212737E+02  0.22888739378E+02  0.00000000000E+00 0.  1.
         12    1    3    3    0    0  0.11878344343E+03 -0.24677996348E+02  0.15252538033E+03  0.19489099923E+03  0.00000000000E+00 0. -1.
        -13    1    5    5    0    0  0.19257261351E+02  0.13773851360E+02  0.50818509475E+03  0.50873632819E+03  0.00000000000E+00 0.  1.
         14    1    5    5    0    0 -0.57612362992E+02 -0.28605691303E+01  0.46754037174E+03  0.47108530696E+03  0.00000000000E+00 0. -1.
          5    1    4    4  502    0 -0.15119123340E+03  0.27234225497E+02  0.25606251774E+03  0.29864794505E+03  0.47000000000E+01 0.  1.
         -5    1    4    4    0  502  0.15197087291E+02  0.90484593542E+01  0.12539431773E+03  0.12672273276E+03  0.47000000000E+01 0.  1.
          1    1    1    2  503    0  0.50027780533E+02  0.28758398649E+02  0.21066084998E+04  0.21073986798E+04  0.00000000000E+00 0. -1.
         -2    1    1    2    0  501  0.12649374967E+02 -0.66068870118E+02 -0.25972656287E+03  0.26829645869E+03  0.00000000000E+00 0.  1.
<mgrwt>
<rscale>  0 0.62279889E+02</rscale>
<asrwt>0</asrwt>
<pdfrwt beam="1">  1        2 0.54200071E+00 0.57704630E+02</pdfrwt>
<pdfrwt beam="2">  1       -1 0.46038558E-01 0.67217910E+02</pdfrwt>
<totfact> 0.72419862E+00</totfact>
</mgrwt>
</event>
<event>
13    1  0.1595792E-008  0.1918904E+03  0.7546771E-02  0.1400799E+00
          2   -1    0    0  503    0  0.00000000000E+00  0.00000000000E+00  0.55320000835E+03  0.55320000835E+03  0.00000000000E+00 0. -1.
          2   -1    0    0  502    0 -0.00000000000E+00 -0.00000000000E+00 -0.24639950154E+04  0.24639950154E+04  0.00000000000E+00 0. -1.
         24    2    1    2    0    0 -0.10785472917E+03  0.37139643738E+02 -0.10339864709E+04  0.10433452890E+04  0.80183378603E+02 0.  0.
         25    2    1    2    0    0 -0.31427131243E+01 -0.28540746993E+03 -0.79239299435E+03  0.85145703453E+03  0.12500049443E+03 0.  0.
         24    2    1    2    0    0 -0.98053466766E+02  0.65181149583E+02 -0.33306764449E+02  0.14541455008E+03  0.78568353755E+02 0.  0.
        -11    1    3    3    0    0 -0.47045879476E+02  0.55932791877E+02 -0.44942697015E+03  0.45533108117E+03  0.00000000000E+00 0.  1.
         12    1    3    3    0    0 -0.60808849695E+02 -0.18793148139E+02 -0.58455950079E+03  0.58801420781E+03  0.00000000000E+00 0. -1.
        -13    1    5    5    0    0  0.35660723017E+00 -0.72517738564E+01 -0.21452824552E+02  0.22648158293E+02  0.00000000000E+00 0.  1.
         14    1    5    5    0    0 -0.98410073996E+02  0.72432923440E+02 -0.11853939897E+02  0.12276639179E+03  0.00000000000E+00 0. -1.
          5    1    4    4  501    0  0.25357435194E+02 -0.16140171050E+03 -0.28707542499E+03  0.33034512454E+03  0.47000000000E+01 0.  1.
         -5    1    4    4    0  501 -0.28500148318E+02 -0.12400575943E+03 -0.50531756936E+03  0.52111190999E+03  0.47000000000E+01 0.  1.
          1    1    1    2  502    0 -0.79274742280E+01  0.16521140003E+02 -0.47344347466E+03  0.47379797025E+03  0.00000000000E+00 0. -1.
          1    1    1    2  503    0  0.21697838329E+03  0.16656553661E+03  0.42233469738E+03  0.50318017987E+03  0.00000000000E+00 0. -1.
<mgrwt>
<rscale>  0 0.59298601E+02</rscale>
<asrwt>0</asrwt>
<pdfrwt beam="1">  1        2 0.81352943E-01 0.19189035E+03</pdfrwt>
<pdfrwt beam="2">  1        2 0.36235221E+00 0.18324653E+02</pdfrwt>
<totfact> 0.63477109E+01</totfact>
</mgrwt>
</event>
<event>
13    1  0.1595792E-008  0.3179450E+02  0.7546771E-02  0.1716402E+00
          2   -1    0    0  503    0  0.00000000000E+00  0.00000000000E+00  0.29932589209E+04  0.29932589209E+04  0.00000000000E+00 0. -1.
         -3   -1    0    0    0  501 -0.00000000000E+00 -0.00000000000E+00 -0.60465201375E+03  0.60465201375E+03  0.00000000000E+00 0.  1.
         24    2    1    2    0    0 -0.11103888977E+03  0.49296326703E+03  0.33408439397E+03  0.61568009805E+03  0.11003264587E+03 0.  0.
         25    2    1    2    0    0  0.35451091176E+03 -0.97846637414E+03  0.11026096356E+04  0.15213298141E+04  0.12498785140E+03 0.  0.
         24    2    1    2    0    0 -0.19973425102E+03  0.47893557318E+03  0.89261491842E+03  0.10356310810E+04  0.80605763696E+02 0.  0.
        -11    1    5    5    0    0 -0.32806272080E+02  0.77348550371E+02  0.21075849994E+03  0.22688806718E+03  0.00000000000E+00 0.  1.
         12    1    5    5    0    0 -0.16692797894E+03  0.40158702281E+03  0.68185641848E+03  0.80874301386E+03  0.00000000000E+00 0. -1.
        -13    1    3    3    0    0 -0.11858617412E+03  0.35831299945E+03  0.20744165113E+03  0.43067728624E+03  0.00000000000E+00 0.  1.
         14    1    3    3    0    0  0.75472843475E+01  0.13465026759E+03  0.12664274284E+03  0.18500281181E+03  0.00000000000E+00 0. -1.
          5    1    4    4  502    0  0.19254344420E+03 -0.35614341618E+03  0.41058330388E+03  0.57663840509E+03  0.47000000000E+01 0.  1.
         -5    1    4    4    0  502  0.16196746756E+03 -0.62232295795E+03  0.69202633172E+03  0.94469140905E+03  0.47000000000E+01 0.  1.
          1    1    1    2  503    0 -0.11996280870E+02  0.82995612938E+01  0.24068085154E+03  0.24112251195E+03  0.00000000000E+00 0. -1.
         -4    1    1    2    0  501 -0.31741490095E+02 -0.17320273744E+01 -0.18138289240E+03  0.18414742944E+03  0.00000000000E+00 0.  1.
<mgrwt>
<rscale>  0 0.21536026E+02</rscale>
<asrwt>0</asrwt>
<pdfrwt beam="1">  1        2 0.44018513E+00 0.14587442E+02</pdfrwt>
<pdfrwt beam="2">  1       -3 0.88919415E-01 0.31794499E+02</pdfrwt>
<totfact> 0.28312259E+00</totfact>
</mgrwt>
</event>
<event>
13    1  0.1595792E-008  0.1030164E+03  0.7546771E-02  0.1301644E+00
          2   -1    0    0  503    0  0.00000000000E+00  0.00000000000E+00  0.28706366007E+04  0.28706366007E+04  0.00000000000E+00 0. -1.
          2   -1    0    0  502    0 -0.00000000000E+00 -0.00000000000E+00 -0.59895146762E+03  0.59895146762E+03  0.00000000000E+00 0. -1.
         24    2    1    2    0    0  0.11629079148E+02  0.16008297642E+02 -0.94893617812E+02  0.13122065561E+03  0.88445241143E+02 0.  0.
         25    2    1    2    0    0 -0.99660976763E+02 -0.24687697617E+02  0.64435493548E+02  0.17412425652E+03  0.12500212468E+03 0.  0.
         24    2    1    2    0    0  0.16923458743E+02 -0.71464263128E+02  0.23839393045E+03  0.26213691962E+03  0.80563975777E+02 0.  0.
        -13    1    3    3    0    0 -0.20851894634E+02  0.31080036673E+02 -0.94856175721E+01  0.38610194640E+02  0.00000000000E+00 0.  1.
         14    1    3    3    0    0  0.32480973782E+02 -0.15071739031E+02 -0.85408000240E+02  0.92610460966E+02  0.00000000000E+00 0. -1.
        -13    1    5    5    0    0  0.25788133631E+02 -0.70832774676E+02  0.10950694925E+03  0.13294390448E+03  0.00000000000E+00 0.  1.
         14    1    5    5    0    0 -0.88646748884E+01 -0.63148845203E+00  0.12888698120E+03  0.12919301514E+03  0.00000000000E+00 0. -1.
          5    1    4    4  501    0 -0.43701561933E+02 -0.42457524812E+02 -0.25826420065E+02  0.66344268041E+02  0.47000000000E+01 0. -1.
         -5    1    4    4    0  501 -0.55959414830E+02  0.17769827195E+02  0.90261913612E+02  0.10777998847E+03  0.47000000000E+01 0. -1.
          1    1    1    2  502    0  0.10848224796E+03  0.99705443994E+01 -0.41145136789E+03  0.42562899104E+03  0.00000000000E+00 0. -1.
          1    1    1    2  503    0 -0.37373809083E+02  0.70173118704E+02  0.24752006948E+04  0.24764772456E+04  0.00000000000E+00 0. -1.
<mgrwt>
<rscale>  0 0.90500466E+02</rscale>
<asrwt>0</asrwt>
<pdfrwt beam="1">  1        2 0.42215244E+00 0.79505146E+02</pdfrwt>
<pdfrwt beam="2">  1        2 0.88081099E-01 0.10301641E+03</pdfrwt>
<totfact> 0.29651869E+01</totfact>
</mgrwt>
</event>
<event>
13    1  0.1595792E-008  0.9614038E+02  0.7546771E-02  0.1398431E+00
          2   -1    0    0  502    0  0.00000000000E+00  0.00000000000E+00  0.21100286375E+04  0.21100286375E+04  0.00000000000E+00 0. -1.
          2   -1    0    0  503    0 -0.00000000000E+00 -0.00000000000E+00 -0.39638672129E+04  0.39638672129E+04  0.00000000000E+00 0. -1.
         24    2    1    2    0    0  0.40265555476E+03  0.84189394611E+02 -0.66925848672E+03  0.78961765298E+03  0.79810813237E+02 0.  0.
         25    2    1    2    0    0 -0.92137459755E+03  0.65925640163E+03 -0.12071151123E+04  0.16602116770E+04  0.12500306483E+03 0.  0.
         24    2    1    2    0    0  0.53669651704E+03 -0.61907365701E+03  0.12053348928E+04  0.14595164234E+04  0.77850125691E+02 0.  0.
        -11    1    3    3    0    0  0.40069989945E+03  0.79531621359E+02 -0.63545943383E+03  0.75544316812E+03  0.00000000000E+00 0.  1.
         12    1    3    3    0    0  0.19556553100E+01  0.46577732521E+01 -0.33799052887E+02  0.34174484859E+02  0.00000000000E+00 0. -1.
        -13    1    5    5    0    0  0.41259642179E+03 -0.50825348713E+03  0.10002143348E+04  0.11954020788E+04  0.00000000000E+00 0.  1.
         14    1    5    5    0    0  0.12410009525E+03 -0.11082016988E+03  0.20512055801E+03  0.26411434458E+03  0.00000000000E+00 0. -1.
          5    1    4    4  501    0 -0.31215170405E+03  0.28943772749E+03 -0.41200976631E+03  0.59244157685E+03  0.47000000000E+01 0.  1.
         -5    1    4    4    0  501 -0.60922289350E+03  0.36981867413E+03 -0.79510534596E+03  0.10677701002E+04  0.47000000000E+01 0.  1.
          1    1    1    2  502    0  0.15033085066E+02 -0.34101021055E+02  0.48878520529E+03  0.49020388635E+03  0.00000000000E+00 0. -1.
          1    1    1    2  503    0 -0.33010559315E+02 -0.90271118174E+02 -0.16715850745E+04  0.16743462106E+04  0.00000000000E+00 0. -1.
<mgrwt>
<rscale>  0 0.59857499E+02</rscale>
<asrwt>0</asrwt>
<pdfrwt beam="1">  1        2 0.31029833E+00 0.37267590E+02</pdfrwt>
<pdfrwt beam="2">  1        2 0.58292164E+00 0.96140378E+02</pdfrwt>
<totfact> 0.11150040E+00</totfact>
</mgrwt>
</event>
<event>
13    1  0.1595792E-008  0.5588128E+02  0.7546771E-02  0.1600801E+00
          2   -1    0    0  502    0  0.00000000000E+00  0.00000000000E+00  0.20685182689E+04  0.20685182689E+04  0.00000000000E+00 0. -1.
          2   -1    0    0  503    0 -0.00000000000E+00 -0.00000000000E+00 -0.11116861588E+04  0.11116861588E+04  0.00000000000E+00 0. -1.
         24    2    1    2    0    0 -0.10299888147E+03 -0.72873593166E+01 -0.33012164293E+03  0.35037820239E+03  0.55881216778E+02 0.  0.
         25    2    1    2    0    0  0.45587991006E+02 -0.13312078426E+02 -0.21635997345E+03  0.25434646299E+03  0.12500003506E+03 0.  0.
         24    2    1    2    0    0  0.31941868919E+02 -0.11599427548E+02  0.30733970887E+03  0.31920685741E+03  0.79249551800E+02 0.  0.
        -11    1    5    5    0    0  0.44993188468E+02  0.20076108252E+02  0.14055807482E+03  0.14894297409E+03  0.00000000000E+00 0.  1.
         12    1    5    5    0    0 -0.13051319550E+02 -0.31675535799E+02  0.16678163405E+03  0.17026388333E+03  0.00000000000E+00 0. -1.
        -13    1    3    3    0    0 -0.43796582960E+02  0.61078337514E+00 -0.63451246569E+02  0.77101066311E+02  0.00000000000E+00 0.  1.
         14    1    3    3    0    0 -0.59202298506E+02 -0.78981426917E+01 -0.26667039636E+03  0.27327713608E+03  0.00000000000E+00 0. -1.
          5    1    4    4  501    0  0.76197120588E+02 -0.33912509127E+02 -0.90742719794E+02  0.12333852057E+03  0.47000000000E+01 0. -1.
         -5    1    4    4    0  501 -0.30609129582E+02  0.20600430701E+02 -0.12561725366E+03  0.13100794241E+03  0.47000000000E+01 0. -1.
          1    1    1    2  502    0  0.29366402837E+02  0.47556761348E+02  0.17255524770E+04  0.17264574661E+04  0.00000000000E+00 0. -1.
          1    1    1    2  503    0 -0.38973812967E+01 -0.15357896058E+02 -0.52957845944E+03  0.52981543886E+03  0.00000000000E+00 0. -1.
<mgrwt>
<rscale>  0 0.29756045E+02</rscale>
<asrwt>0</asrwt>
<pdfrwt beam="1">  1        2 0.30419386E+00 0.55881282E+02</pdfrwt>
<pdfrwt beam="2">  1        2 0.16348326E+00 0.15844701E+02</pdfrwt>
<totfact> 0.39953997E+01</totfact>
</mgrwt>
</event>
<event>
13    1  0.1595792E-008  0.1815141E+03  0.7546771E-02  0.1345070E+00
          2   -1    0    0  502    0  0.00000000000E+00  0.00000000000E+00  0.59996677420E+03  0.59996677420E+03  0.00000000000E+00 0. -1.
          4   -1    0    0  503    0 -0.00000000000E+00 -0.00000000000E+00 -0.28348236078E+04  0.28348236078E+04  0.00000000000E+00 0. -1.
         24    2    1    2    0    0  0.33163204464E+02 -0.16249924725E+02 -0.54046542146E+03  0.54747465225E+03  0.79131314119E+02 0.  0.
         25    2    1    2    0    0 -0.15558479164E+03  0.24388512276E+03 -0.11370851600E+04  0.11799486362E+04  0.12501816869E+03 0.  0.
         24    2    1    2    0    0 -0.54175557593E+02 -0.10538053295E+03  0.58454217897E+02  0.15494540466E+03  0.80939082462E+02 0.  0.
        -13    1    5    5    0    0  0.19193105696E+02 -0.64595283190E+01  0.10143698709E+02  0.22649402550E+02  0.00000000000E+00 0.  1.
         14    1    5    5    0    0 -0.73368663289E+02 -0.98921004630E+02  0.48310519188E+02  0.13229600211E+03  0.00000000000E+00 0. -1.
        -13    1    3    3    0    0  0.40015690774E+01  0.22428266497E+02 -0.54077668360E+02  0.58680779719E+02  0.00000000000E+00 0.  1.
         14    1    3    3    0    0  0.29161635387E+02 -0.38678191222E+02 -0.48638775310E+03  0.48879387253E+03  0.00000000000E+00 0. -1.
          5    1    4    4  501    0  0.20506908473E+02  0.17232663060E+02 -0.12616033529E+03  0.12905819684E+03  0.47000000000E+01 0. -1.
         -5    1    4    4    0  501 -0.17609170011E+03  0.22665245970E+03 -0.10109248247E+04  0.10508904393E+04  0.47000000000E+01 0. -1.
          1    1    1    2  502    0  0.15685267427E+03 -0.98783881612E+02  0.44975900286E+03  0.48646086928E+03  0.00000000000E+00 0. -1.
          3    1    1    2  503    0  0.19744470502E+02 -0.23470783474E+02 -0.10655194729E+04  0.10659608196E+04  0.00000000000E+00 0. -1.
<mgrwt>
<rscale>  0 0.74614029E+02</rscale>
<asrwt>0</asrwt>
<pdfrwt beam="1">  1        2 0.88230408E-01 0.18151411E+03</pdfrwt>
<pdfrwt beam="2">  1        4 0.41688582E+00 0.30671188E+02</pdfrwt>
<totfact> 0.24901839E-01</totfact>
</mgrwt>
</event>
<event>
13    1  0.1595792E-008  0.1479516E+03  0.7546771E-02  0.1441795E+00
          2   -1    0    0  503    0  0.00000000000E+00  0.00000000000E+00  0.11323692604E+04  0.11323692604E+04  0.00000000000E+00 0. -1.
          2   -1    0    0  502    0 -0.00000000000E+00 -0.00000000000E+00 -0.10271935277E+04  0.10271935277E+04  0.00000000000E+00 0. -1.
         24    2    1    2    0    0  0.17955567564E+03 -0.28707309655E+02 -0.40032631126E+03  0.44753333482E+03  0.83430090503E+02 0.  0.
         25    2    1    2    0    0  0.38138617992E+02  0.66964471680E+01 -0.42859950855E+01  0.13093160344E+03  0.12500127375E+03 0.  0.
         24    2    1    2    0    0 -0.12242832433E+03  0.11353519248E+03  0.46978598864E+02  0.19105728972E+03  0.80105959029E+02 0.  0.
        -11    1    3    3    0    0  0.13768226544E+03 -0.46959087042E+02 -0.35280266283E+03  0.38161666758E+03  0.00000000000E+00 0.  1.
         12    1    3    3    0    0  0.41873410201E+02  0.18251777388E+02 -0.47523648428E+02  0.65916667237E+02  0.00000000000E+00 0. -1.
        -11    1    5    5    0    0 -0.80850837896E+02  0.11832682030E+03  0.34975048741E+02  0.14751728178E+03  0.00000000000E+00 0.  1.
         12    1    5    5    0    0 -0.41577486432E+02 -0.47916278144E+01  0.12003550123E+02  0.43540007932E+02  0.00000000000E+00 0. -1.
          5    1    4    4  501    0  0.19277816105E+02 -0.11993571906E+02 -0.62561518004E+02  0.66719663487E+02  0.47000000000E+01 0. -1.
         -5    1    4    4    0  501  0.18860801886E+02  0.18690019074E+02  0.58275522919E+02  0.64211939951E+02  0.47000000000E+01 0. -1.
          1    1    1    2  502    0  0.65284605742E+01  0.16073640716E+02 -0.45752965273E+03  0.45785845613E+03  0.00000000000E+00 0. -1.
          1    1    1    2  503    0 -0.10179442988E+03 -0.10759797071E+03  0.92033909290E+03  0.93218210409E+03  0.00000000000E+00 0. -1.
<mgrwt>
<rscale>  0 0.50663504E+02</rscale>
<asrwt>0</asrwt>
<pdfrwt beam="1">  1        2 0.16652489E+00 0.14795160E+03</pdfrwt>
<pdfrwt beam="2">  1        2 0.15105787E+00 0.17348854E+02</pdfrwt>
<totfact> 0.11722205E+02</totfact>
</mgrwt>
</event>
<event>
13    1  0.1595792E-008  0.1740266E+03  0.7546771E-02  0.1298122E+00
         -1   -1    0    0    0  501 -0.00000000000E+00  0.00000000000E+00  0.55410237285E+03  0.55410237285E+03  0.00000000000E+00 0.  1.
          4   -1    0    0  503    0  0.00000000000E+00 -0.00000000000E+00 -0.11318528942E+04  0.11318528942E+04  0.00000000000E+00 0. -1.
         24    2    1    2    0    0  0.39504572492E+02 -0.67395245473E+02 -0.54999607273E+02  0.12493585254E+03  0.80506397814E+02 0.  0.
         25    2    1    2    0    0 -0.16477134225E+03 -0.16498301549E+02  0.53644811835E+02  0.21429837638E+03  0.12499695636E+03 0.  0.
         24    2    1    2    0    0  0.72890647849E+02 -0.59230152916E+02 -0.38066658112E+03  0.40043287575E+03  0.81352224553E+02 0.  0.
        -11    1    5    5    0    0  0.77094736898E+02 -0.25466722085E+02 -0.18797139882E+03  0.20475692703E+03  0.00000000000E+00 0.  1.
         12    1    5    5    0    0 -0.42040890493E+01 -0.33763430831E+02 -0.19269518230E+03  0.19567594872E+03  0.00000000000E+00 0. -1.
        -13    1    3    3    0    0  0.44198395958E+02 -0.50413717777E+02  0.14493491318E+00  0.67045224673E+02  0.00000000000E+00 0.  1.
         14    1    3    3    0    0 -0.46938234660E+01 -0.16981527696E+02 -0.55144542186E+02  0.57890627864E+02  0.00000000000E+00 0. -1.
          5    1    4    4  502    0 -0.15273614273E+03 -0.49290440993E+02  0.70346480151E+02  0.17529573337E+03  0.47000000000E+01 0. -1.
         -5    1    4    4    0  502 -0.12035199526E+02  0.32792139444E+02 -0.16701668316E+02  0.39002643006E+02  0.47000000000E+01 0. -1.
          3    1    1    2  503    0 -0.28296223945E+02 -0.39534173312E+02 -0.54328462876E+03  0.54545560314E+03  0.00000000000E+00 0. -1.
         -2    1    1    2    0  501  0.80672345856E+02  0.18265787325E+03  0.34755548401E+03  0.40083255920E+03  0.00000000000E+00 0.  1.
<mgrwt>
<rscale>  0 0.91981929E+02</rscale>
<asrwt>0</asrwt>
<pdfrwt beam="2">  1        4 0.16644895E+00 0.48617149E+02</pdfrwt>
<pdfrwt beam="1">  1       -1 0.81485645E-01 0.17402656E+03</pdfrwt>
<totfact> 0.14834517E+00</totfact>
</mgrwt>
</event>
<event>
13    1  0.1595792E-008  0.2303489E+03  0.7546771E-02  0.1296558E+00
          2   -1    0    0  503    0  0.00000000000E+00  0.00000000000E+00  0.24155643704E+04  0.24155643704E+04  0.00000000000E+00 0. -1.
          2   -1    0    0  502    0 -0.00000000000E+00 -0.00000000000E+00 -0.10279494275E+04  0.10279494275E+04  0.00000000000E+00 0. -1.
         24    2    1    2    0    0  0.22989770674E+02  0.63108847583E+02 -0.40005108520E+03  0.41320504431E+03  0.78652919077E+02 0.  0.
         25    2    1    2    0    0  0.44379753505E+01 -0.67194344012E+02 -0.12855050032E+03  0.19153033658E+03  0.12499545273E+03 0.  0.
         24    2    1    2    0    0  0.10661001412E+03 -0.15175834024E+03  0.31102681533E+03  0.37067970476E+03  0.79180014704E+02 0.  0.
        -11    1    3    3    0    0  0.30646755036E+02  0.28603753658E+01 -0.24092007984E+03  0.24287834447E+03  0.00000000000E+00 0.  1.
         12    1    3    3    0    0 -0.76569843618E+01  0.60248472217E+02 -0.15913100536E+03  0.17032669984E+03  0.00000000000E+00 0. -1.
        -11    1    5    5    0    0  0.43158437381E+02 -0.32091880219E+02  0.15498511290E+03  0.16405159162E+03  0.00000000000E+00 0.  1.
         12    1    5    5    0    0  0.63451576737E+02 -0.11966646002E+03  0.15604170243E+03  0.20662811315E+03  0.00000000000E+00 0. -1.
          5    1    4    4  501    0  0.53443712397E+02 -0.74258313592E+02 -0.91793138624E+02  0.12968653681E+03  0.47000000000E+01 0. -1.
         -5    1    4    4    0  501 -0.49005737047E+02  0.70639695800E+01 -0.36757361700E+02  0.61843799761E+02  0.47000000000E+01 0. -1.
          1    1    1    2  502    0  0.31352674085E+02 -0.20142781718E+02 -0.42347388008E+03  0.42511039618E+03  0.00000000000E+00 0. -1.
          1    1    1    2  503    0 -0.16539043423E+03  0.17598661839E+03  0.20286635931E+04  0.20429883161E+04  0.00000000000E+00 0. -1.
<mgrwt>
<rscale>  0 0.92650317E+02</rscale>
<asrwt>0</asrwt>
<pdfrwt beam="1">  1        2 0.35523005E+00 0.23034892E+03</pdfrwt>
<pdfrwt beam="2">  1        2 0.15116903E+00 0.37265558E+02</pdfrwt>
<totfact> 0.24159097E+01</totfact>
</mgrwt>
</event>
<event>
13    1  0.1595792E-008  0.1751926E+03  0.7546771E-02  0.1391188E+00
          2   -1    0    0  503    0  0.00000000000E+00  0.00000000000E+00  0.85328917876E+03  0.85328917876E+03  0.00000000000E+00 0. -1.
          2   -1    0    0  502    0 -0.00000000000E+00 -0.00000000000E+00 -0.12508880562E+04  0.12508880562E+04  0.00000000000E+00 0. -1.
         24    2    1    2    0    0 -0.80734783610E+01 -0.11890365902E+02  0.21752375529E+02  0.84356891215E+02  0.80226911945E+02 0.  0.
         25    2    1    2    0    0  0.23356326028E+02  0.25486109017E+03  0.53741637785E+03  0.60822785942E+03  0.12500029018E+03 0.  0.
         24    2    1    2    0    0  0.25973641258E+02 -0.64133337631E+02  0.60414186923E+02  0.12028822715E+03  0.77663817653E+02 0.  0.
        -11    1    3    3    0    0 -0.40213424106E+02 -0.24374615568E+02  0.12736584343E+02  0.48718189038E+02  0.00000000000E+00 0.  1.
         12    1    3    3    0    0  0.32139945745E+02  0.12484249665E+02  0.90157911861E+01  0.35638702178E+02  0.00000000000E+00 0. -1.
        -13    1    5    5    0    0  0.42022394160E+02 -0.66785770099E+02  0.27477581735E+02  0.83553804202E+02  0.00000000000E+00 0.  1.
         14    1    5    5    0    0 -0.16048752901E+02  0.26524324678E+01  0.32936605189E+02  0.36734422944E+02  0.00000000000E+00 0. -1.
          5    1    4    4  501    0 -0.26909956324E+01 -0.20142850309E+01  0.10076953025E+03  0.10093506342E+03  0.47000000000E+01 0. -1.
         -5    1    4    4    0  501  0.26047321661E+02  0.25687537520E+03  0.43664684760E+03  0.50729279600E+03  0.47000000000E+01 0. -1.
          1    1    1    2  502    0 -0.20369816179E+02 -0.17307119013E+03 -0.11467607360E+04  0.11599261838E+04  0.00000000000E+00 0. -1.
          1    1    1    2  503    0 -0.20886672747E+02 -0.57661965080E+01  0.12957891822E+03  0.13137807339E+03  0.00000000000E+00 0. -1.
<mgrwt>
<rscale>  0 0.61612284E+02</rscale>
<asrwt>0</asrwt>
<pdfrwt beam="1">  1        2 0.12548371E+00 0.21667998E+02</pdfrwt>
<pdfrwt beam="2">  1        2 0.18395412E+00 0.17519263E+03</pdfrwt>
<totfact> 0.12309706E+02</totfact>
</mgrwt>
</event>
<event>
13    1  0.1595792E-008  0.8367859E+02  0.7546771E-02  0.1321195E+00
          2   -1    0    0  503    0  0.00000000000E+00  0.00000000000E+00  0.30126050785E+04  0.30126050785E+04  0.00000000000E+00 0. -1.
          2   -1    0    0  502    0 -0.00000000000E+00 -0.00000000000E+00 -0.45969771580E+04  0.45969771580E+04  0.00000000000E+00 0. -1.
         24    2    1    2    0    0 -0.18062645119E+03  0.43244900692E+03 -0.41765336301E+03  0.63314574163E+03  0.82469024765E+02 0.  0.
         25    2    1    2    0    0  0.48683182794E+03  0.63951591973E+02  0.67359715261E+02  0.51113439702E+03  0.12500402298E+03 0.  0.
         24    2    1    2    0    0 -0.31461728935E+03 -0.43876477274E+03  0.22756507558E+03  0.58982976084E+03  0.67931720052E+02 0.  0.
        -13    1    3    3    0    0 -0.16259909189E+03  0.35631221129E+03 -0.38221490605E+03  0.54725231019E+03  0.00000000000E+00 0.  1.
         14    1    3    3    0    0 -0.18027359306E+02  0.76136795629E+02 -0.35438456958E+02  0.85893431436E+02  0.00000000000E+00 0. -1.
        -13    1    5    5    0    0 -0.16035232349E+03 -0.27126827159E+03  0.15237551424E+03  0.35002519932E+03  0.00000000000E+00 0.  1.
         14    1    5    5    0    0 -0.15426496586E+03 -0.16749650114E+03  0.75189561345E+02  0.23980456151E+03  0.00000000000E+00 0. -1.
          5    1    4    4  501    0  0.48478709791E+03  0.48383732818E+02  0.75162780515E+02  0.49298179426E+03  0.47000000000E+01 0. -1.
         -5    1    4    4    0  501  0.20447300393E+01  0.15567859156E+02 -0.78030652537E+01  0.18152602760E+02  0.47000000000E+01 0. -1.
          1    1    1    2  502    0 -0.72881484455E+02 -0.37577746225E+02 -0.36673052516E+04  0.36682218589E+04  0.00000000000E+00 0. -1.
          1    1    1    2  503    0  0.81293397055E+02 -0.20058079935E+02  0.22056617443E+04  0.22072504781E+04  0.00000000000E+00 0. -1.
<mgrwt>
<rscale>  0 0.82834421E+02</rscale>
<asrwt>0</asrwt>
<pdfrwt beam="1">  1        2 0.44303016E+00 0.83678591E+02</pdfrwt>
<pdfrwt beam="2">  1        2 0.67602605E+00 0.81998767E+02</pdfrwt>
<totfact> 0.12800370E-01</totfact>
</mgrwt>
</event>
<event>
13    1  0.1595792E-008  0.4634486E+02  0.7546771E-02  0.1481452E+00
          2   -1    0    0  503    0  0.00000000000E+00  0.00000000000E+00  0.13884241550E+04  0.13884241550E+04  0.00000000000E+00 0. -1.
          2   -1    0    0  502    0 -0.00000000000E+00 -0.00000000000E+00 -0.10212870675E+04  0.10212870675E+04  0.00000000000E+00 0. -1.
         24    2    1    2    0    0  0.10827384418E+03  0.53691596461E+02 -0.17148706944E+02  0.14638011589E+03  0.80790143661E+02 0.  0.
         25    2    1    2    0    0 -0.72666559591E+02 -0.35037767149E+02  0.24434536504E+02  0.15076365054E+03  0.12499823095E+03 0.  0.
         24    2    1    2    0    0 -0.10455638033E+03 -0.45795877550E+02  0.34859323436E+03  0.37524511081E+03  0.79135017977E+02 0.  0.
        -11    1    5    5    0    0 -0.10456515443E+03 -0.59835420865E+02  0.27361469238E+03  0.29896345763E+03  0.00000000000E+00 0.  1.
         12    1    5    5    0    0  0.87740934597E-02  0.14039543316E+02  0.74978541986E+02  0.76281653179E+02  0.00000000000E+00 0. -1.
        -13    1    3    3    0    0 -0.10496530957E+02 -0.94308142221E+00  0.80227319122E+01  0.13245028956E+02  0.00000000000E+00 0.  1.
         14    1    3    3    0    0  0.11877037514E+03  0.54634677883E+02 -0.25171438856E+02  0.13313508693E+03  0.00000000000E+00 0. -1.
          5    1    4    4  501    0 -0.79602925113E+02 -0.19797711387E+01 -0.31082894028E+02  0.85608302643E+02  0.47000000000E+01 0. -1.
         -5    1    4    4    0  501  0.69363655224E+01 -0.33057996011E+02  0.55517430532E+02  0.65155347898E+02  0.47000000000E+01 0. -1.
          1    1    1    2  502    0  0.28477371353E+02  0.36536650826E+02 -0.86191623474E+03  0.86316017241E+03  0.00000000000E+00 0. -1.
          1    1    1    2  503    0  0.40471724393E+02 -0.93946025876E+01  0.87317425828E+03  0.87416217280E+03  0.00000000000E+00 0. -1.
<mgrwt>
<rscale>  0 0.43880821E+02</rscale>
<asrwt>0</asrwt>
<pdfrwt beam="1">  1        2 0.20418002E+00 0.41547792E+02</pdfrwt>
<pdfrwt beam="2">  1        2 0.15018927E+00 0.46344857E+02</pdfrwt>
<totfact> 0.89827123E+01</totfact>
</mgrwt>
</event>
<event>
13    1  0.1595792E-008  0.8020732E+02  0.7546771E-02  0.1332044E+00
          2   -1    0    0  503    0  0.00000000000E+00  0.00000000000E+00  0.12142224721E+04  0.12142224721E+04  0.00000000000E+00 0. -1.
         -1   -1    0    0    0  501 -0.00000000000E+00 -0.00000000000E+00 -0.85666262180E+03  0.85666262180E+03  0.00000000000E+00 0.  1.
         24    2    1    2    0    0 -0.59412232987E+02  0.18599355441E+02 -0.13032118569E+02  0.99238089353E+02  0.76174883083E+02 0.  0.
         25    2    1    2    0    0  0.10900535009E+03  0.15677183317E+02 -0.10196196366E+03  0.19531618134E+03  0.12499691290E+03 0.  0.
         24    2    1    2    0    0  0.75140689937E+02  0.13978662863E+02  0.19264722070E+03  0.21427178941E+03  0.54386779611E+02 0.  0.
        -11    1    3    3    0    0 -0.47587956999E+01  0.32958161491E+02 -0.24796743559E+02  0.41518249440E+02  0.00000000000E+00 0.  1.
         12    1    3    3    0    0 -0.54653437287E+02 -0.14358806050E+02  0.11764624990E+02  0.57719839914E+02  0.00000000000E+00 0. -1.
        -13    1    5    5    0    0 -0.71024694192E+00  0.70433348437E+01  0.66769617880E+02  0.67143837307E+02  0.00000000000E+00 0.  1.
         14    1    5    5    0    0  0.75850936879E+02  0.69353280196E+01  0.12587760282E+03  0.14712795211E+03  0.00000000000E+00 0. -1.
          5    1    4    4  502    0  0.11971714155E+03  0.37689930154E+02 -0.11215480348E+03  0.16838501941E+03  0.47000000000E+01 0. -1.
         -5    1    4    4    0  502 -0.10711791460E+02 -0.22012746837E+02  0.10192839821E+02  0.26931161936E+02  0.47000000000E+01 0. -1.
          1    1    1    2  503    0 -0.12599755847E+03  0.29456444051E+02  0.91405369375E+03  0.92316695234E+03  0.00000000000E+00 0. -1.
         -2    1    1    2    0  501  0.12637514347E+01 -0.77711645672E+02 -0.63414698197E+03  0.63889208141E+03  0.00000000000E+00 0.  1.
<mgrwt>
<rscale>  0 0.78954841E+02</rscale>
<asrwt>0</asrwt>
<pdfrwt beam="1">  1        2 0.17856213E+00 0.80207319E+02</pdfrwt>
<pdfrwt beam="2">  1       -1 0.12597980E+00 0.77721921E+02</pdfrwt>
<totfact> 0.16507810E+01</totfact>
</mgrwt>
</event>
<event>
13    1  0.1595792E-008  0.1653438E+03  0.7546771E-02  0.1315959E+00
          2   -1    0    0  503    0  0.00000000000E+00  0.00000000000E+00  0.25391534189E+04  0.25391534189E+04  0.00000000000E+00 0. -1.
         -1   -1    0    0    0  501 -0.00000000000E+00 -0.00000000000E+00 -0.76945120755E+03  0.76945120755E+03  0.00000000000E+00 0.  1.
         24    2    1    2    0    0  0.94194311203E+02 -0.16871917268E+02 -0.93845619568E+02  0.15655080032E+03  0.80894517198E+02 0.  0.
         25    2    1    2    0    0  0.23334068146E+03 -0.18977652422E+02  0.31476267927E+03  0.41171769546E+03  0.12501156578E+03 0.  0.
         24    2    1    2    0    0 -0.83119768597E+02  0.15841503846E+03  0.30741831858E+03  0.36500426948E+03  0.81962636624E+02 0.  0.
        -11    1    5    5    0    0 -0.23373535981E+02  0.30010907705E+02  0.14313238687E+03  0.14810083368E+03  0.00000000000E+00 0.  1.
         12    1    5    5    0    0 -0.59746232616E+02  0.12840413075E+03  0.16428593171E+03  0.21690343580E+03  0.00000000000E+00 0. -1.
        -13    1    3    3    0    0  0.99554723798E+02  0.71367056235E+01 -0.67419405810E+02  0.12044688405E+03  0.00000000000E+00 0.  1.
         14    1    3    3    0    0 -0.53604125942E+01 -0.24008622891E+02 -0.26426213758E+02  0.36103916268E+02  0.00000000000E+00 0. -1.
          5    1    4    4  502    0  0.91397927588E+02 -0.46607348914E+02  0.60570862905E+02  0.11923399504E+03  0.47000000000E+01 0. -1.
         -5    1    4    4    0  502  0.14194275387E+03  0.27629696491E+02  0.25419181636E+03  0.29248370041E+03  0.47000000000E+01 0. -1.
          1    1    1    2  503    0  0.29130158388E+02 -0.32293409025E+02  0.17714785095E+04  0.17720122855E+04  0.00000000000E+00 0. -1.
         -2    1    1    2    0  501 -0.27354538245E+03 -0.90272059741E+02 -0.53011167638E+03  0.60331957573E+03  0.00000000000E+00 0.  1.
<mgrwt>
<rscale>  0 0.84799156E+02</rscale>
<asrwt>0</asrwt>
<pdfrwt beam="1">  1        2 0.37340491E+00 0.43490578E+02</pdfrwt>
<pdfrwt beam="2">  1       -1 0.11315459E+00 0.16534378E+03</pdfrwt>
<totfact> 0.50404012E+00</totfact>
</mgrwt>
</event>
<event>
13    1  0.1595792E-008  0.3182100E+02  0.7546771E-02  0.1683408E+00
          2   -1    0    0  503    0  0.00000000000E+00  0.00000000000E+00  0.20181448387E+04  0.20181448387E+04  0.00000000000E+00 0. -1.
          2   -1    0    0  502    0 -0.00000000000E+00 -0.00000000000E+00 -0.16478076409E+03  0.16478076409E+03  0.00000000000E+00 0. -1.
         24    2    1    2    0    0  0.48061296735E+02 -0.28971161338E+02 -0.22443081206E+02  0.96372343986E+02  0.75064774416E+02 0.  0.
         25    2    1    2    0    0 -0.12730823915E+03 -0.56210098807E+02  0.74710162613E+03  0.77016400090E+03  0.12499914224E+03 0.  0.
         24    2    1    2    0    0  0.80622733093E+02  0.66223657107E+02  0.11673492569E+04  0.11745587849E+04  0.77449684193E+02 0.  0.
        -11    1    5    5    0    0 -0.84623679119E+01  0.22236995904E+02  0.10954993906E+03  0.11210390183E+03  0.00000000000E+00 0.  1.
         12    1    5    5    0    0  0.89085101005E+02  0.43986661203E+02  0.10577993179E+04  0.10624548830E+04  0.00000000000E+00 0. -1.
        -13    1    3    3    0    0 -0.12591132230E+02 -0.12189178218E+02  0.15066051237E+02  0.23110572826E+02  0.00000000000E+00 0.  1.
         14    1    3    3    0    0  0.60652428965E+02 -0.16781983120E+02 -0.37509132444E+02  0.73261771160E+02  0.00000000000E+00 0. -1.
          5    1    4    4  501    0 -0.13859581706E+03 -0.65015611353E+02  0.50795854926E+03  0.53054670670E+03  0.47000000000E+01 0.  1.
         -5    1    4    4    0  501  0.11287577912E+02  0.88055125460E+01  0.23914307687E+03  0.23961729420E+03  0.47000000000E+01 0.  1.
          1    1    1    2  502    0 -0.16712833149E+02  0.27104269016E+02 -0.85831841790E+02  0.91548158123E+02  0.00000000000E+00 0. -1.
          1    1    1    2  503    0  0.15337042470E+02 -0.81466659788E+01  0.47188114537E+02  0.50282314901E+02  0.00000000000E+00 0. -1.
<mgrwt>
<rscale>  0 0.23507813E+02</rscale>
<asrwt>0</asrwt>
<pdfrwt beam="1">  1        2 0.29678599E+00 0.17366434E+02</pdfrwt>
<pdfrwt beam="2">  1        2 0.24232466E-01 0.31820998E+02</pdfrwt>
<totfact> 0.35451010E+02</totfact>
</mgrwt>
</event>
<event>
13    1  0.1595792E-008  0.2239028E+03  0.7546771E-02  0.1313733E+00
         -3   -1    0    0    0  501 -0.00000000000E+00  0.00000000000E+00  0.47530577699E+03  0.47530577699E+03  0.00000000000E+00 0.  1.
          2   -1    0    0  503    0  0.00000000000E+00 -0.00000000000E+00 -0.38425049633E+04  0.38425049633E+04  0.00000000000E+00 0. -1.
         24    2    1    2    0    0  0.39615337774E+02 -0.25955060006E+02 -0.19186988950E+02  0.95366141154E+02  0.80520309281E+02 0.  0.
         25    2    1    2    0    0  0.17774033827E+03 -0.34595320293E+02 -0.43870586268E+03  0.49079162462E+03  0.12500048325E+03 0.  0.
         24    2    1    2    0    0 -0.12439636577E+03 -0.17951372671E+03 -0.13316320686E+04  0.13516773648E+04  0.78026269300E+02 0.  0.
        -11    1    5    5    0    0 -0.10026039754E+03 -0.76841075456E+02 -0.74822021046E+03  0.75880839579E+03  0.00000000000E+00 0.  1.
         12    1    5    5    0    0 -0.24135968227E+02 -0.10267265125E+03 -0.58341185811E+03  0.59286896905E+03  0.00000000000E+00 0. -1.
        -13    1    3    3    0    0  0.60542578014E+02 -0.43151982772E+01 -0.23235061815E+02  0.64991482413E+02  0.00000000000E+00 0.  1.
         14    1    3    3    0    0 -0.20927240240E+02 -0.21639861729E+02  0.40480728643E+01  0.30374658741E+02  0.00000000000E+00 0. -1.
          5    1    4    4  502    0  0.80710461282E+02  0.36597782300E+02 -0.11400757465E+03  0.14447627247E+03  0.47000000000E+01 0. -1.
         -5    1    4    4    0  502  0.97029876989E+02 -0.71193102593E+02 -0.32469828802E+03  0.34631535214E+03  0.47000000000E+01 0. -1.
          1    1    1    2  503    0 -0.79683813368E+02  0.21010764371E+03 -0.19717634527E+04  0.19845266048E+04  0.00000000000E+00 0. -1.
         -4    1    1    2    0  501 -0.13275496911E+02  0.29956463301E+02  0.39408918652E+03  0.39544900486E+03  0.00000000000E+00 0.  1.
<mgrwt>
<rscale>  0 0.85653141E+02</rscale>
<asrwt>0</asrwt>
<pdfrwt beam="2">  1        2 0.56507426E+00 0.22390283E+03</pdfrwt>
<pdfrwt beam="1">  1       -3 0.69897908E-01 0.32766271E+02</pdfrwt>
<totfact> 0.91913652E-01</totfact>
</mgrwt>
</event>
<event>
13    1  0.1595792E-008  0.4578372E+02  0.7546771E-02  0.1491176E+00
          2   -1    0    0  503    0  0.00000000000E+00  0.00000000000E+00  0.31399842201E+04  0.31399842201E+04  0.00000000000E+00 0. -1.
         -1   -1    0    0    0  501 -0.00000000000E+00 -0.00000000000E+00 -0.28679641215E+03  0.28679641215E+03  0.00000000000E+00 0.  1.
         24    2    1    2    0    0  0.54004427572E+02  0.82548386784E+01 -0.12435502264E+03  0.15858576623E+03  0.81857516675E+02 0.  0.
         25    2    1    2    0    0  0.24345988649E+02 -0.89600392408E+02  0.72004316847E+02  0.17155581933E+03  0.12500328003E+03 0.  0.
         24    2    1    2    0    0 -0.83573171965E+02  0.77250964554E+02  0.63122849003E+03  0.64646346802E+03  0.80705775836E+02 0.  0.
        -11    1    3    3    0    0  0.64772198821E+02 -0.19741870014E+02 -0.77093775474E+02  0.10260910968E+03  0.00000000000E+00 0.  1.
         12    1    3    3    0    0 -0.10767771249E+02  0.27996708693E+02 -0.47261247167E+02  0.55976656555E+02  0.00000000000E+00 0. -1.
        -11    1    5    5    0    0 -0.48786270752E+01 -0.11967295208E+02  0.20335300492E+02  0.24094430950E+02  0.00000000000E+00 0.  1.
         12    1    5    5    0    0 -0.78694544890E+02  0.89218259762E+02  0.61089318954E+03  0.62236903707E+03  0.00000000000E+00 0. -1.
          5    1    4    4  502    0  0.29810567822E+02  0.20328599889E+02  0.45476293564E+02  0.58241782284E+02  0.47000000000E+01 0.  1.
         -5    1    4    4    0  502 -0.54645791725E+01 -0.10992899230E+03  0.26528023284E+02  0.11331403705E+03  0.47000000000E+01 0.  1.
          1    1    1    2  503    0  0.40081606266E+02  0.22217975497E+02  0.23576204100E+04  0.23580657690E+04  0.00000000000E+00 0. -1.
         -2    1    1    2    0  501 -0.34858850522E+02 -0.18123386321E+02 -0.83310386205E+02  0.92109809690E+02  0.00000000000E+00 0.  1.
<mgrwt>
<rscale>  0 0.42412024E+02</rscale>
<asrwt>0</asrwt>
<pdfrwt beam="1">  1        2 0.46176237E+00 0.45783722E+02</pdfrwt>
<pdfrwt beam="2">  1       -1 0.42175945E-01 0.39288632E+02</pdfrwt>
<totfact> 0.17822879E+01</totfact>
</mgrwt>
</event>
<event>
13    1  0.1595792E-008  0.6442978E+02  0.7546771E-02  0.1442654E+00
          2   -1    0    0  503    0  0.00000000000E+00  0.00000000000E+00  0.35747484707E+04  0.35747484707E+04  0.00000000000E+00 0. -1.
          2   -1    0    0  502    0 -0.00000000000E+00 -0.00000000000E+00 -0.48449376851E+03  0.48449376851E+03  0.00000000000E+00 0. -1.
         24    2    1    2    0    0  0.66892522467E+02 -0.21022115992E+02  0.25405622882E+03  0.27537466318E+03  0.79812898672E+02 0.  0.
         25    2    1    2    0    0  0.92401510095E+02  0.21951892651E+03  0.66522428110E+03  0.71754767657E+03  0.12499890325E+03 0.  0.
         24    2    1    2    0    0 -0.89484096335E+02 -0.12146330184E+03  0.74852155999E+03  0.76754186500E+03  0.77943900178E+02 0.  0.
        -11    1    3    3    0    0  0.73994026497E+02  0.96705211103E+01  0.17275964647E+03  0.18818748733E+03  0.00000000000E+00 0.  1.
         12    1    3    3    0    0 -0.71015040300E+01 -0.30692637103E+02  0.81296582345E+02  0.87187175851E+02  0.00000000000E+00 0. -1.
        -13    1    5    5    0    0 -0.90058908117E+02 -0.13013628810E+03  0.66513959339E+03  0.68370808033E+03  0.00000000000E+00 0.  1.
         14    1    5    5    0    0  0.57481178197E+00  0.86729862565E+01  0.83381966598E+02  0.83833784675E+02  0.00000000000E+00 0. -1.
          5    1    4    4  501    0 -0.17482529741E+02  0.11774236296E+03  0.29698776011E+03  0.31998862876E+03  0.47000000000E+01 0.  1.
         -5    1    4    4    0  501  0.10988403984E+03  0.10177656355E+03  0.36823652100E+03  0.39755904781E+03  0.47000000000E+01 0.  1.
          1    1    1    2  502    0 -0.43146797770E+02 -0.47775767338E+02 -0.43558623900E+03  0.44031754644E+03  0.00000000000E+00 0. -1.
          1    1    1    2  503    0 -0.26663138457E+02 -0.29257741333E+02  0.18580388713E+04  0.18584604880E+04  0.00000000000E+00 0. -1.
<mgrwt>
<rscale>  0 0.50501737E+02</rscale>
<asrwt>0</asrwt>
<pdfrwt beam="1">  1        2 0.52569829E+00 0.39584573E+02</pdfrwt>
<pdfrwt beam="2">  1        2 0.71249085E-01 0.64429783E+02</pdfrwt>
<totfact> 0.17642683E+01</totfact>
</mgrwt>
</event>
<event>
13    1  0.1595792E-008  0.7743610E+02  0.7546771E-02  0.1344630E+00
         -1   -1    0    0    0  501 -0.00000000000E+00  0.00000000000E+00  0.13076391895E+04  0.13076391895E+04  0.00000000000E+00 0.  1.
          2   -1    0    0  503    0  0.00000000000E+00 -0.00000000000E+00 -0.28692202914E+04  0.28692202914E+04  0.00000000000E+00 0. -1.
         24    2    1    2    0    0  0.69922530363E+01  0.93630549059E+02  0.38934544047E+02  0.12687750773E+03  0.75937026074E+02 0.  0.
         25    2    1    2    0    0  0.11637030057E+03 -0.22435876275E+03 -0.65091591939E+03  0.70936626352E+03  0.12502024006E+03 0.  0.
         24    2    1    2    0    0 -0.24527106649E+02  0.46512784695E+02 -0.98559612998E+03  0.98999504548E+03  0.76976883120E+02 0.  0.
        -13    1    3    3    0    0 -0.27948598140E+02  0.11201778434E+02  0.17473073874E+02  0.34812530627E+02  0.00000000000E+00 0.  1.
         14    1    3    3    0    0  0.34940851176E+02  0.82428770625E+02  0.21461470172E+02  0.92064977106E+02  0.00000000000E+00 0. -1.
        -13    1    5    5    0    0 -0.24834915946E+02 -0.15074201280E+02 -0.21712934545E+03  0.21906427653E+03  0.00000000000E+00 0.  1.
         14    1    5    5    0    0  0.30780929711E+00  0.61586985975E+02 -0.76846678453E+03  0.77093076895E+03  0.00000000000E+00 0. -1.
          5    1    4    4  502    0  0.14254973788E+03 -0.19546245055E+03 -0.57655914298E+03  0.62527476576E+03  0.47000000000E+01 0. -1.
         -5    1    4    4    0  502 -0.26179437312E+02 -0.28896312207E+02 -0.74356776407E+02  0.84091497756E+02  0.47000000000E+01 0. -1.
          1    1    1    2  503    0 -0.23062543109E+02  0.68383108467E+02 -0.11549292985E+04  0.11571818418E+04  0.00000000000E+00 0. -1.
         -2    1    1    2    0  501 -0.75772903844E+02  0.15832320533E+02  0.11909257019E+04  0.11934388224E+04  0.00000000000E+00 0.  1.
<mgrwt>
<rscale>  0 0.74755337E+02</rscale>
<asrwt>0</asrwt>
<pdfrwt beam="2">  1        2 0.42194415E+00 0.72167378E+02</pdfrwt>
<pdfrwt beam="1">  1       -1 0.19229988E+00 0.77436102E+02</pdfrwt>
<totfact> 0.85875003E-01</totfact>
</mgrwt>
</event>
<event>
13    1  0.1595792E-008  0.1313260E+03  0.7546771E-02  0.1287058E+00
          2   -1    0    0  502    0  0.00000000000E+00  0.00000000000E+00  0.26339169028E+04  0.26339169028E+04  0.00000000000E+00 0. -1.
          2   -1    0    0  503    0 -0.00000000000E+00 -0.00000000000E+00 -0.10993407591E+04  0.10993407591E+04  0.00000000000E+00 0. -1.
         24    2    1    2    0    0  0.31875526584E+02 -0.17560499415E+03 -0.17408813253E+03  0.26225575544E+03  0.81352567307E+02 0.  0.
         25    2    1    2    0    0 -0.15660001261E+03  0.77564701432E+02 -0.96461127943E+01  0.21507811874E+03  0.12500281122E+03 0.  0.
         24    2    1    2    0    0  0.49249728898E+02 -0.87947273122E+02  0.43925025345E+03  0.45762655295E+03  0.79504831061E+02 0.  0.
        -11    1    3    3    0    0  0.48195236657E+02 -0.17192348782E+03 -0.15160918569E+03  0.23423452283E+03  0.00000000000E+00 0.  1.
         12    1    3    3    0    0 -0.16319710073E+02 -0.36815063297E+01 -0.22478946841E+02  0.28021232607E+02  0.00000000000E+00 0. -1.
        -13    1    5    5    0    0 -0.24211103343E+01 -0.33145099357E+02  0.43339307095E+02  0.54614603598E+02  0.00000000000E+00 0.  1.
         14    1    5    5    0    0  0.51670839232E+02 -0.54802173765E+02  0.39591094635E+03  0.40301194935E+03  0.00000000000E+00 0. -1.
          5    1    4    4  501    0 -0.32058573617E+02 -0.13605518996E+01  0.46961598211E+02  0.57070876551E+02  0.47000000000E+01 0.  1.
         -5    1    4    4    0  501 -0.12454143899E+03  0.78925253332E+02 -0.56607711005E+02  0.15800724219E+03  0.47000000000E+01 0.  1.
          1    1    1    2  502    0  0.39192736467E+02  0.59715227285E+02  0.20323657509E+04  0.20336205458E+04  0.00000000000E+00 0. -1.
          1    1    1    2  503    0  0.36282020660E+02  0.12627233856E+03 -0.75330561537E+03  0.76467668897E+03  0.00000000000E+00 0. -1.
<mgrwt>
<rscale>  0 0.96852321E+02</rscale>
<asrwt>0</asrwt>
<pdfrwt beam="1">  1        2 0.38734072E+00 0.71428138E+02</pdfrwt>
<pdfrwt beam="2">  1        2 0.16166776E+00 0.13132600E+03</pdfrwt>
<totfact> 0.18599656E+01</totfact>
</mgrwt>
</event>
<event>
13    1  0.1595792E-008  0.4347957E+02  0.7546771E-02  0.1528672E+00
          2   -1    0    0  502    0  0.00000000000E+00  0.00000000000E+00  0.12637020403E+04  0.12637020403E+04  0.00000000000E+00 0. -1.
          2   -1    0    0  503    0 -0.00000000000E+00 -0.00000000000E+00 -0.41101107888E+03  0.41101107888E+03  0.00000000000E+00 0. -1.
         24    2    1    2    0    0  0.15213429512E+03  0.26130239924E+03  0.54311328627E+02  0.31531430830E+03  0.71060572779E+02 0.  0.
         25    2    1    2    0    0 -0.86518825892E+02 -0.24474152798E+03 -0.66059181540E+02  0.29559129256E+03  0.12500589595E+03 0.  0.
         24    2    1    2    0    0 -0.88068397456E+02 -0.89737420438E+01  0.72665253615E+03  0.73640137853E+03  0.80165524632E+02 0.  0.
        -11    1    5    5    0    0 -0.41134622704E+01  0.27419693423E+02  0.18754239042E+03  0.18958087553E+03  0.00000000000E+00 0.  1.
         12    1    5    5    0    0 -0.83954935186E+02 -0.36393435467E+02  0.53911014572E+03  0.54682050301E+03  0.00000000000E+00 0. -1.
        -13    1    3    3    0    0  0.68969822499E+02  0.18223199002E+03  0.21917305004E+02  0.19607575796E+03  0.00000000000E+00 0.  1.
         14    1    3    3    0    0  0.83164472622E+02  0.79070409214E+02  0.32394023622E+02  0.11923855034E+03  0.00000000000E+00 0. -1.
          5    1    4    4  501    0 -0.10907038713E+02  0.13739465040E+02 -0.89618242916E+01  0.20251930469E+02  0.47000000000E+01 0. -1.
         -5    1    4    4    0  501 -0.75611787179E+02 -0.25848099302E+03 -0.57097357249E+02  0.27533936210E+03  0.47000000000E+01 0. -1.
          1    1    1    2  502    0  0.38793275117E+02  0.20024306119E+02  0.22774791968E+03  0.23189438533E+03  0.00000000000E+00 0. -1.
          1    1    1    2  503    0 -0.16340346890E+02 -0.27611435329E+02 -0.89961641492E+02  0.95511754446E+02  0.00000000000E+00 0. -1.
<mgrwt>
<rscale>  0 0.37349818E+02</rscale>
<asrwt>0</asrwt>
<pdfrwt beam="1">  1        2 0.18583853E+00 0.43479572E+02</pdfrwt>
<pdfrwt beam="2">  1        2 0.60442806E-01 0.32084238E+02</pdfrwt>
<totfact> 0.28353907E+02</totfact>
</mgrwt>
</event>
<event>
13    1  0.1595792E-008  0.8712932E+02  0.7546771E-02  0.1358410E+00
          2   -1    0    0  502    0  0.00000000000E+00  0.00000000000E+00  0.12221974474E+04  0.12221974474E+04  0.00000000000E+00 0. -1.
          2   -1    0    0  503    0 -0.00000000000E+00 -0.00000000000E+00 -0.31977353685E+04  0.31977353685E+04  0.00000000000E+00 0. -1.
         24    2    1    2    0    0 -0.36307264516E+03 -0.58816074509E+02 -0.13684593588E+04  0.14193385924E+04  0.80993498990E+02 0.  0.
         25    2    1    2    0    0 -0.21425829834E+03  0.88128211506E+02 -0.19022699621E+03  0.32478373597E+03  0.12499985997E+03 0.  0.
         24    2    1    2    0    0  0.48646583048E+03 -0.72466844290E+02  0.18974952400E+03  0.53678981278E+03  0.10118287161E+03 0.  0.
        -11    1    3    3    0    0 -0.16836197732E+03  0.11224738573E+02 -0.66532660041E+03  0.68639000239E+03  0.00000000000E+00 0.  1.
         12    1    3    3    0    0 -0.19471066784E+03 -0.70040813082E+02 -0.70313275838E+03  0.73294858999E+03  0.00000000000E+00 0. -1.
        -11    1    5    5    0    0  0.24090071922E+03 -0.46099633400E+02  0.14755263687E+03  0.28623436790E+03  0.00000000000E+00 0.  1.
         12    1    5    5    0    0  0.24556511126E+03 -0.26367210890E+02  0.42196887127E+02  0.25055544488E+03  0.00000000000E+00 0. -1.
          5    1    4    4  501    0 -0.19326143056E+03  0.92319736231E+02 -0.20644629470E+03  0.29751483464E+03  0.47000000000E+01 0. -1.
         -5    1    4    4    0  501 -0.20996867782E+02 -0.41915247250E+01  0.16219298486E+02  0.27268901326E+02  0.47000000000E+01 0. -1.
          1    1    1    2  502    0  0.47087231869E+02 -0.32192423613E+02  0.76376235020E+03  0.76588934392E+03  0.00000000000E+00 0. -1.
          1    1    1    2  503    0  0.43777881153E+02  0.75347130907E+02 -0.13703634403E+04  0.13731313308E+04  0.00000000000E+00 0. -1.
<mgrwt>
<rscale>  0 0.70497198E+02</rscale>
<asrwt>0</asrwt>
<pdfrwt beam="1">  1        2 0.17973492E+00 0.57039982E+02</pdfrwt>
<pdfrwt beam="2">  1        2 0.47025519E+00 0.87129321E+02</pdfrwt>
<totfact> 0.82738845E+00</totfact>
</mgrwt>
</event>
<event>
13    1  0.1595792E-008  0.2530107E+03  0.7546771E-02  0.1406319E+00
          2   -1    0    0  502    0  0.00000000000E+00  0.00000000000E+00  0.31362008386E+04  0.31362008386E+04  0.00000000000E+00 0. -1.
          2   -1    0    0  503    0 -0.00000000000E+00 -0.00000000000E+00 -0.27474608514E+04  0.27474608514E+04  0.00000000000E+00 0. -1.
         24    2    1    2    0    0  0.23655639294E+03  0.19937507536E+01 -0.59114346394E+02  0.26034099841E+03  0.91214184316E+02 0.  0.
         25    2    1    2    0    0  0.73860175972E+02  0.22529942585E+03  0.27681345054E+03  0.38531092772E+03  0.12499467082E+03 0.  0.
         24    2    1    2    0    0 -0.91981062046E+02 -0.33300678208E+03  0.25085880304E+04  0.25338573873E+04  0.89807129533E+02 0.  0.
        -11    1    5    5    0    0 -0.49698482105E+02 -0.18600062847E+03  0.17054097374E+04  0.17162425660E+04  0.00000000000E+00 0.  1.
         12    1    5    5    0    0 -0.42282579941E+02 -0.14700615361E+03  0.80317829298E+03  0.81761482134E+03  0.00000000000E+00 0. -1.
        -11    1    3    3    0    0  0.18881066198E+03 -0.13676830438E+02 -0.92246973213E+01  0.18952998921E+03  0.00000000000E+00 0.  1.
         12    1    3    3    0    0  0.47745730963E+02  0.15670581192E+02 -0.49889649073E+02  0.70811009205E+02  0.00000000000E+00 0. -1.
          5    1    4    4  501    0 -0.16712201681E+02  0.11500972875E+03  0.76130498556E+02  0.13901251096E+03  0.47000000000E+01 0. -1.
         -5    1    4    4    0  501  0.90572377652E+02  0.11028969710E+03  0.20068295199E+03  0.24629841676E+03  0.47000000000E+01 0. -1.
          1    1    1    2  502    0  0.12910824291E+02  0.32213251280E+01  0.17670219948E+03  0.17720252149E+03  0.00000000000E+00 0. -1.
          1    1    1    2  503    0 -0.23134633116E+03  0.10249228035E+03 -0.25142493468E+04  0.25269498551E+04  0.00000000000E+00 0. -1.
<mgrwt>
<rscale>  0 0.58023430E+02</rscale>
<asrwt>0</asrwt>
<pdfrwt beam="1">  1        2 0.46120601E+00 0.13306627E+02</pdfrwt>
<pdfrwt beam="2">  1        2 0.40403836E+00 0.25301065E+03</pdfrwt>
<totfact> 0.19237713E+00</totfact>
</mgrwt>
</event>
<event>
13    1  0.1595792E-008  0.5171874E+02  0.7546771E-02  0.1459467E+00
          2   -1    0    0  503    0  0.00000000000E+00  0.00000000000E+00  0.19484722025E+04  0.19484722025E+04  0.00000000000E+00 0. -1.
         -3   -1    0    0    0  501 -0.00000000000E+00 -0.00000000000E+00 -0.19066395764E+04  0.19066395764E+04  0.00000000000E+00 0.  1.
         24    2    1    2    0    0  0.57891746327E+03  0.12207567236E+03 -0.87086503161E+03  0.10581937830E+04  0.10639680516E+03 0.  0.
         25    2    1    2    0    0 -0.26904707206E+03 -0.32550530696E+03 -0.35307106703E+03  0.56446820826E+03  0.12500059165E+03 0.  0.
         24    2    1    2    0    0 -0.24380521487E+03  0.24934367461E+03  0.17996411545E+03  0.40071999329E+03  0.81093645273E+02 0.  0.
        -11    1    5    5    0    0 -0.17270530222E+03  0.14028792201E+03  0.79508490951E+02  0.23628250593E+03  0.00000000000E+00 0.  1.
         12    1    5    5    0    0 -0.71099912655E+02  0.10905575260E+03  0.10045562450E+03  0.16443748736E+03  0.00000000000E+00 0. -1.
        -11    1    3    3    0    0  0.15706076556E+03  0.72180048917E+02 -0.30568016579E+03  0.35116720703E+03  0.00000000000E+00 0.  1.
         12    1    3    3    0    0  0.42185669770E+03  0.49895623440E+02 -0.56518486582E+03  0.70702657601E+03  0.00000000000E+00 0. -1.
          5    1    4    4  502    0 -0.88612612486E+02 -0.16562202305E+03 -0.21906524153E+03  0.28860789951E+03  0.47000000000E+01 0.  1.
         -5    1    4    4    0  502 -0.18043445957E+03 -0.15988328391E+03 -0.13400582550E+03  0.27586030875E+03  0.47000000000E+01 0.  1.
          1    1    1    2  503    0 -0.51485392446E+02 -0.48491824684E+01  0.14570340815E+04  0.14579514995E+04  0.00000000000E+00 0. -1.
         -4    1    1    2    0  501 -0.14579783888E+02 -0.41064857537E+02 -0.37122947218E+03  0.37377829477E+03  0.00000000000E+00 0.  1.
<mgrwt>
<rscale>  0 0.47473263E+02</rscale>
<asrwt>0</asrwt>
<pdfrwt beam="1">  1        2 0.28654003E+00 0.51718743E+02</pdfrwt>
<pdfrwt beam="2">  1       -3 0.28038817E+00 0.43576285E+02</pdfrwt>
<totfact> 0.40634251E-01</totfact>
</mgrwt>
</event>
<event>
13    1  0.1595792E-008  0.7668839E+02  0.7546771E-02  0.1408248E+00
          2   -1    0    0  503    0  0.00000000000E+00  0.00000000000E+00  0.22569610681E+04  0.22569610681E+04  0.00000000000E+00 0. -1.
          2   -1    0    0  502    0 -0.00000000000E+00 -0.00000000000E+00 -0.14556122679E+04  0.14556122679E+04  0.00000000000E+00 0. -1.
         24    2    1    2    0    0  0.32235991510E+02  0.56940042452E+02 -0.23939660909E+03  0.26003912791E+03  0.77642024839E+02 0.  0.
         25    2    1    2    0    0 -0.13925062875E+03 -0.66683857739E+02  0.54362348275E+03  0.57878149441E+03  0.12499621107E+03 0.  0.
         24    2    1    2    0    0  0.20243744798E+01 -0.48318447961E+01  0.38956122256E+03  0.39777541220E+03  0.80248910341E+02 0.  0.
        -11    1    5    5    0    0  0.37770403240E+02  0.11312059238E+02  0.15377842890E+03  0.15875254719E+03  0.00000000000E+00 0.  1.
         12    1    5    5    0    0 -0.35746028760E+02 -0.16143904034E+02  0.23578279366E+03  0.23902286501E+03  0.00000000000E+00 0. -1.
        -13    1    3    3    0    0  0.20630483537E+01  0.67273363020E+02 -0.13448407706E+03  0.15038593193E+03  0.00000000000E+00 0.  1.
         14    1    3    3    0    0  0.30172943156E+02 -0.10333320568E+02 -0.10491253203E+03  0.10965319598E+03  0.00000000000E+00 0. -1.
          5    1    4    4  501    0 -0.12724295503E+03 -0.26767841678E+02  0.50590903886E+03  0.52237279078E+03  0.47000000000E+01 0.  1.
         -5    1    4    4    0  501 -0.12007673719E+02 -0.39916016061E+02  0.37714443891E+02  0.56408703622E+02  0.47000000000E+01 0.  1.
          1    1    1    2  502    0  0.37470453998E+02 -0.21584696457E+02 -0.11826774469E+04  0.11834677340E+04  0.00000000000E+00 0. -1.
          1    1    1    2  503    0  0.67519808760E+02  0.36160356541E+02  0.12902381508E+04  0.12925095674E+04  0.00000000000E+00 0. -1.
<mgrwt>
<rscale>  0 0.57586593E+02</rscale>
<asrwt>0</asrwt>
<pdfrwt beam="1">  1        2 0.33190604E+00 0.76688390E+02</pdfrwt>
<pdfrwt beam="2">  1        2 0.21406063E+00 0.43242734E+02</pdfrwt>
<totfact> 0.19895532E+01</totfact>
</mgrwt>
</event>
<event>
13    1  0.1595792E-008  0.3293170E+02  0.7546771E-02  0.1603296E+00
          2   -1    0    0  502    0  0.00000000000E+00  0.00000000000E+00  0.16244313489E+04  0.16244313489E+04  0.00000000000E+00 0. -1.
          2   -1    0    0  503    0 -0.00000000000E+00 -0.00000000000E+00 -0.25274840085E+03  0.25274840085E+03  0.00000000000E+00 0. -1.
         24    2    1    2    0    0  0.77913756860E+01 -0.20327232261E+03 -0.68989729796E+02  0.22951906132E+03  0.80864541163E+02 0.  0.
         25    2    1    2    0    0  0.48947130026E+01  0.14459211986E+03  0.19238022699E+03  0.27122965433E+03  0.12499813724E+03 0.  0.
         24    2    1    2    0    0 -0.19585398503E+02  0.56515383056E+02  0.11123941883E+03  0.15032646458E+03  0.81524605455E+02 0.  0.
        -11    1    5    5    0    0 -0.48445598097E+02  0.16760776546E+02  0.65764734711E+02  0.83384050855E+02  0.00000000000E+00 0.  1.
         12    1    5    5    0    0  0.28860199594E+02  0.39754606510E+02  0.45474684119E+02  0.66942413723E+02  0.00000000000E+00 0. -1.
        -13    1    3    3    0    0  0.10933774860E+01  0.60901118774E+01  0.43699720304E+01  0.75750638646E+01  0.00000000000E+00 0.  1.
         14    1    3    3    0    0  0.66979982000E+01 -0.20936243449E+03 -0.73359701827E+02  0.22194399746E+03  0.00000000000E+00 0. -1.
          5    1    4    4  501    0  0.25492749562E+01  0.78548336903E+02  0.12730428663E+02  0.79752704324E+02  0.47000000000E+01 0. -1.
         -5    1    4    4    0  501  0.23454380464E+01  0.66043782956E+02  0.17964979832E+03  0.19147695001E+03  0.47000000000E+01 0. -1.
          1    1    1    2  502    0 -0.20437899474E+02 -0.16848113274E+02  0.11751829475E+04  0.11754814021E+04  0.00000000000E+00 0. -1.
          1    1    1    2  503    0  0.27337209289E+02  0.19012932969E+02 -0.38129915424E+02  0.50623167444E+02  0.00000000000E+00 0. -1.
<mgrwt>
<rscale>  0 0.29534137E+02</rscale>
<asrwt>0</asrwt>
<pdfrwt beam="1">  1        2 0.23888696E+00 0.26487104E+02</pdfrwt>
<pdfrwt beam="2">  1        2 0.37168883E-01 0.32931696E+02</pdfrwt>
<totfact> 0.32520554E+02</totfact>
</mgrwt>
</event>
<event>
13    1  0.1595792E-008  0.8711238E+02  0.7546771E-02  0.1354348E+00
          2   -1    0    0  503    0  0.00000000000E+00  0.00000000000E+00  0.77648776561E+03  0.77648776561E+03  0.00000000000E+00 0. -1.
          2   -1    0    0  502    0 -0.00000000000E+00 -0.00000000000E+00 -0.80008824970E+03  0.80008824970E+03  0.00000000000E+00 0. -1.
         24    2    1    2    0    0  0.59712771473E+01 -0.24532434488E+02 -0.14238073967E+03  0.16533924336E+03  0.80170405220E+02 0.  0.
         25    2    1    2    0    0  0.65667496481E+02 -0.82813157926E+02 -0.18639822324E+03  0.24807238853E+03  0.12500149241E+03 0.  0.
         24    2    1    2    0    0  0.58352521592E+02  0.17381862329E+02  0.22514348196E+03  0.24608815333E+03  0.78502521133E+02 0.  0.
        -13    1    3    3    0    0 -0.15573981887E+01  0.29442845133E+02 -0.46790457505E+02  0.55305094993E+02  0.00000000000E+00 0.  1.
         14    1    3    3    0    0  0.75286753360E+01 -0.53975279621E+02 -0.95590282161E+02  0.11003414836E+03  0.00000000000E+00 0. -1.
        -13    1    5    5    0    0  0.24889424018E+02 -0.24166008765E+02  0.37840529116E+02  0.51336001513E+02  0.00000000000E+00 0.  1.
         14    1    5    5    0    0  0.33463097575E+02  0.41547871095E+02  0.18730295285E+03  0.19475215182E+03  0.00000000000E+00 0. -1.
          5    1    4    4  501    0  0.77158465918E+02 -0.53404667183E+02 -0.46979558435E+02  0.10504597208E+03  0.47000000000E+01 0. -1.
         -5    1    4    4    0  501 -0.11490969438E+02 -0.29408490743E+02 -0.13941866480E+03  0.14302641645E+03  0.47000000000E+01 0. -1.
          1    1    1    2  502    0 -0.22156573938E+02  0.54728254247E+02 -0.40992439827E+03  0.41415469076E+03  0.00000000000E+00 0. -1.
          1    1    1    2  503    0 -0.10783472128E+03  0.35235475838E+02  0.48995939511E+03  0.50292153934E+03  0.00000000000E+00 0. -1.
<mgrwt>
<rscale>  0 0.71717436E+02</rscale>
<asrwt>0</asrwt>
<pdfrwt beam="1">  1        2 0.11418938E+00 0.87112377E+02</pdfrwt>
<pdfrwt beam="2">  1        2 0.11766004E+00 0.59043167E+02</pdfrwt>
<totfact> 0.25015363E+02</totfact>
</mgrwt>
</event>
<event>
13    1  0.1595792E-008  0.1997873E+03  0.7546771E-02  0.1232297E+00
          2   -1    0    0  502    0  0.00000000000E+00  0.00000000000E+00  0.30534537785E+04  0.30534537785E+04  0.00000000000E+00 0. -1.
          2   -1    0    0  503    0 -0.00000000000E+00 -0.00000000000E+00 -0.17257236642E+04  0.17257236642E+04  0.00000000000E+00 0. -1.
         24    2    1    2    0    0 -0.67868505319E+02  0.12917895625E+03 -0.60909157639E+02  0.17697992995E+03  0.79489831871E+02 0.  0.
         25    2    1    2    0    0 -0.93286748179E+02  0.14781142350E+03  0.10259246458E+04  0.10481872883E+04  0.12499831292E+03 0.  0.
         24    2    1    2    0    0 -0.78820725845E+02 -0.51995691022E+02  0.57138662902E+03  0.58422732178E+03  0.76958592621E+02 0.  0.
        -13    1    3    3    0    0  0.10218936376E+02  0.47287693931E+02 -0.38027196949E+02  0.61535521170E+02  0.00000000000E+00 0.  1.
         14    1    3    3    0    0 -0.78087441696E+02  0.81891262315E+02 -0.22881960690E+02  0.11544440878E+03  0.00000000000E+00 0. -1.
        -13    1    5    5    0    0 -0.87169217184E+02 -0.21416528878E+02  0.40187967400E+03  0.41178199634E+03  0.00000000000E+00 0.  1.
         14    1    5    5    0    0  0.83484913385E+01 -0.30579162144E+02  0.16950695502E+03  0.17244532544E+03  0.00000000000E+00 0. -1.
          5    1    4    4  501    0 -0.77179651227E+02  0.16905200686E+03  0.84164025068E+03  0.86192556590E+03  0.47000000000E+01 0. -1.
         -5    1    4    4    0  501 -0.16107096952E+02 -0.21240583363E+02  0.18428439510E+03  0.18626172240E+03  0.47000000000E+01 0. -1.
          1    1    1    2  502    0 -0.69064298087E+02 -0.41288817724E+02  0.13590174085E+04  0.13613974293E+04  0.00000000000E+00 0. -1.
          1    1    1    2  503    0  0.30904027743E+03 -0.18370587100E+03 -0.15676894114E+04  0.16083854733E+04  0.00000000000E+00 0. -1.
<mgrwt>
<rscale>  0 0.12679085E+03</rscale>
<asrwt>0</asrwt>
<pdfrwt beam="1">  1        2 0.44903732E+00 0.80465171E+02</pdfrwt>
<pdfrwt beam="2">  1        2 0.25378289E+00 0.19978730E+03</pdfrwt>
<totfact> 0.51113212E+00</totfact>
</mgrwt>
</event>
<event>
13    1  0.1595792E-008  0.1785321E+03  0.7546771E-02  0.1248940E+00
          2   -1    0    0  503    0  0.00000000000E+00  0.00000000000E+00  0.25272226857E+04  0.25272226857E+04  0.00000000000E+00 0. -1.
         -3   -1    0    0    0  501 -0.00000000000E+00 -0.00000000000E+00 -0.20040278570E+04  0.20040278570E+04  0.00000000000E+00 0.  1.
         24    2    1    2    0    0 -0.77843832930E+02  0.32297692405E+03 -0.51497813459E+03  0.61797672636E+03  0.79492134309E+02 0.  0.
         25    2    1    2    0    0 -0.17290447659E+03 -0.16954669611E+03 -0.16837235919E+03  0.32033931004E+03  0.12500392805E+03 0.  0.
         24    2    1    2    0    0  0.19921101910E+03 -0.39388347516E+03  0.69772407100E+03  0.82769273380E+03  0.58541952551E+02 0.  0.
        -13    1    5    5    0    0  0.84987880198E+02 -0.11692229805E+03  0.20015889403E+03  0.24689541596E+03  0.00000000000E+00 0.  1.
         14    1    5    5    0    0  0.11422313890E+03 -0.27696117711E+03  0.49756517697E+03  0.58079731784E+03  0.00000000000E+00 0. -1.
        -13    1    3    3    0    0 -0.66018291044E+02  0.12080007551E+03 -0.23641508592E+03  0.27357479022E+03  0.00000000000E+00 0.  1.
         14    1    3    3    0    0 -0.11825541886E+02  0.20217684854E+03 -0.27856304868E+03  0.34440193614E+03  0.00000000000E+00 0. -1.
          5    1    4    4  502    0 -0.14844203481E+03 -0.73028546658E+02 -0.68139384723E+02  0.17897841232E+03  0.47000000000E+01 0. -1.
         -5    1    4    4    0  502 -0.24462441772E+02 -0.96518149456E+02 -0.10023297447E+03  0.14136089772E+03  0.47000000000E+01 0. -1.
          1    1    1    2  503    0  0.81437367682E+01  0.17799101719E+03  0.16308920904E+04  0.16405962737E+04  0.00000000000E+00 0. -1.
         -4    1    1    2    0  501  0.43393553652E+02  0.62462230038E+02 -0.11220708389E+04  0.11246454989E+04  0.00000000000E+00 0.  1.
<mgrwt>
<rscale>  0 0.11652662E+03</rscale>
<asrwt>0</asrwt>
<pdfrwt beam="1">  1        2 0.37165040E+00 0.17853207E+03</pdfrwt>
<pdfrwt beam="2">  1       -3 0.29470998E+00 0.76056102E+02</pdfrwt>
<totfact> 0.14931586E-01</totfact>
</mgrwt>
</event>
<event>
13    1  0.1595792E-008  0.1205399E+03  0.7546771E-02  0.1359946E+00
          2   -1    0    0  502    0  0.00000000000E+00  0.00000000000E+00  0.79958252589E+03  0.79958252589E+03  0.00000000000E+00 0. -1.
          2   -1    0    0  503    0 -0.00000000000E+00 -0.00000000000E+00 -0.22673739334E+04  0.22673739334E+04  0.00000000000E+00 0. -1.
         24    2    1    2    0    0  0.46811087667E+02 -0.72584937098E+01 -0.36043103919E+03  0.37107060679E+03  0.74423770076E+02 0.  0.
         25    2    1    2    0    0 -0.57367086814E+02  0.27246008895E+02 -0.36435363003E+03  0.39039831975E+03  0.12499581073E+03 0.  0.
         24    2    1    2    0    0 -0.10945379537E+03  0.26826262031E+02 -0.20471660818E+03  0.24686842741E+03  0.79594906454E+02 0.  0.
        -11    1    5    5    0    0 -0.22421562901E+01  0.63041832101E+01  0.63633472820E+01  0.92337521846E+01  0.00000000000E+00 0.  1.
         12    1    5    5    0    0 -0.10721163908E+03  0.20522078821E+02 -0.21107995546E+03  0.23763467522E+03  0.00000000000E+00 0. -1.
        -11    1    3    3    0    0  0.48308850101E+02 -0.22638803572E+02 -0.34545852099E+03  0.34955378721E+03  0.00000000000E+00 0.  1.
         12    1    3    3    0    0 -0.14977624347E+01  0.15380309862E+02 -0.14972518201E+02  0.21516819585E+02  0.00000000000E+00 0. -1.
          5    1    4    4  501    0  0.34492912448E+01  0.80504172617E+01 -0.29828758777E+03  0.29845314849E+03  0.47000000000E+01 0.  1.
         -5    1    4    4    0  501 -0.60816378059E+02  0.19195591633E+02 -0.66066042263E+02  0.91945171263E+02  0.47000000000E+01 0.  1.
          1    1    1    2  502    0 -0.15475881999E+02 -0.37643505344E+02  0.75606517395E+03  0.75715987987E+03  0.00000000000E+00 0. -1.
          1    1    1    2  503    0  0.13548567651E+03 -0.91702718724E+01 -0.12943553041E+04  0.13014592255E+04  0.00000000000E+00 0. -1.
<mgrwt>
<rscale>  0 0.70043144E+02</rscale>
<asrwt>0</asrwt>
<pdfrwt beam="1">  1        2 0.11758567E+00 0.40700570E+02</pdfrwt>
<pdfrwt beam="2">  1        2 0.33343734E+00 0.12053989E+03</pdfrwt>
<totfact> 0.41664054E+01</totfact>
</mgrwt>
</event>
<event>
13    1  0.1595792E-008  0.8930615E+02  0.7546771E-02  0.1380656E+00
          2   -1    0    0  503    0  0.00000000000E+00  0.00000000000E+00  0.16530007798E+04  0.16530007798E+04  0.00000000000E+00 0. -1.
          2   -1    0    0  502    0 -0.00000000000E+00 -0.00000000000E+00 -0.72406992826E+03  0.72406992826E+03  0.00000000000E+00 0. -1.
         24    2    1    2    0    0  0.64488768272E+02 -0.78820181702E+02 -0.53844338227E+02  0.13981078120E+03  0.79223856907E+02 0.  0.
         25    2    1    2    0    0 -0.16383147644E+03  0.71192436656E+02  0.39477542003E+02  0.22156878619E+03  0.12500053993E+03 0.  0.
         24    2    1    2    0    0  0.15951701146E+02  0.19672745327E+02  0.34722097812E+03  0.35730588746E+03  0.80396616139E+02 0.  0.
        -11    1    5    5    0    0  0.39837427700E+02  0.37267916935E+02  0.21772165584E+03  0.22445186054E+03  0.00000000000E+00 0.  1.
         12    1    5    5    0    0 -0.23885726554E+02 -0.17595171608E+02  0.12949932228E+03  0.13285402692E+03  0.00000000000E+00 0. -1.
        -13    1    3    3    0    0 -0.10393568559E+02 -0.25181807300E+02 -0.37357969472E+02  0.46235998631E+02  0.00000000000E+00 0.  1.
         14    1    3    3    0    0  0.74882336831E+02 -0.53638374402E+02 -0.16486368755E+02  0.93574782567E+02  0.00000000000E+00 0. -1.
          5    1    4    4  501    0 -0.13970557385E+03  0.98849734810E+02  0.54364883319E+01  0.17129087204E+03  0.47000000000E+01 0.  1.
         -5    1    4    4    0  501 -0.24125902585E+02 -0.27657298154E+02  0.34041053671E+02  0.50277914154E+02  0.47000000000E+01 0.  1.
          1    1    1    2  502    0  0.11498503206E+02  0.44832454368E+02 -0.52827703918E+03  0.53030066440E+03  0.00000000000E+00 0. -1.
          1    1    1    2  503    0  0.71892503814E+02 -0.56877454649E+02  0.11243537088E+04  0.11280845888E+04  0.00000000000E+00 0. -1.
<mgrwt>
<rscale>  0 0.64291547E+02</rscale>
<asrwt>0</asrwt>
<pdfrwt beam="1">  1        2 0.24308835E+00 0.89306145E+02</pdfrwt>
<pdfrwt beam="2">  1        2 0.10648087E+00 0.46283523E+02</pdfrwt>
<totfact> 0.94947861E+01</totfact>
</mgrwt>
</event>
<event>
13    1  0.1595792E-008  0.8376464E+02  0.7546771E-02  0.1376867E+00
          2   -1    0    0  502    0  0.00000000000E+00  0.00000000000E+00  0.17266633878E+04  0.17266633878E+04  0.00000000000E+00 0. -1.
          2   -1    0    0  503    0 -0.00000000000E+00 -0.00000000000E+00 -0.19326255872E+04  0.19326255872E+04  0.00000000000E+00 0. -1.
         24    2    1    2    0    0  0.17158011104E+03  0.95632420544E+02 -0.34058433349E+03  0.40111938633E+03  0.79459294644E+02 0.  0.
         25    2    1    2    0    0 -0.30257419884E+03 -0.28854223845E+03 -0.64595913253E+02  0.44114029317E+03  0.12499742829E+03 0.  0.
         24    2    1    2    0    0  0.14065403367E+03  0.14804024193E+03  0.76071981038E+03  0.79016385007E+03  0.62966734292E+02 0.  0.
        -13    1    5    5    0    0  0.38969789525E+02  0.16337151157E+02  0.23410714080E+03  0.23789010147E+03  0.00000000000E+00 0.  1.
         14    1    5    5    0    0  0.10168424414E+03  0.13170309077E+03  0.52661266958E+03  0.55227374859E+03  0.00000000000E+00 0. -1.
        -13    1    3    3    0    0  0.56304772158E+02  0.50355130880E+02 -0.19985811159E+03  0.21365657336E+03  0.00000000000E+00 0.  1.
         14    1    3    3    0    0  0.11527533888E+03  0.45277289664E+02 -0.14072622190E+03  0.18746281297E+03  0.00000000000E+00 0. -1.
          5    1    4    4  501    0 -0.20661951235E+03 -0.11119362832E+03 -0.34216508432E+02  0.23716767341E+03  0.47000000000E+01 0.  1.
         -5    1    4    4    0  501 -0.95954686487E+02 -0.17734861013E+03 -0.30379404820E+02  0.20397261976E+03  0.47000000000E+01 0.  1.
          1    1    1    2  502    0 -0.37788384768E+02 -0.34095923876E+02  0.73043798885E+03  0.73220908872E+03  0.00000000000E+00 0. -1.
          1    1    1    2  503    0  0.28128438896E+02  0.78965499854E+02 -0.12919397519E+04  0.12946563567E+04  0.00000000000E+00 0. -1.
<mgrwt>
<rscale>  0 0.65294411E+02</rscale>
<asrwt>0</asrwt>
<pdfrwt beam="1">  1        2 0.25392109E+00 0.50896896E+02</pdfrwt>
<pdfrwt beam="2">  1        2 0.28420964E+00 0.83764638E+02</pdfrwt>
<totfact> 0.20683288E+01</totfact>
</mgrwt>
</event>
<event>
13    1  0.1595792E-008  0.1543420E+03  0.7546771E-02  0.1371611E+00
         -3   -1    0    0    0  501 -0.00000000000E+00  0.00000000000E+00  0.14918930345E+03  0.14918930345E+03  0.00000000000E+00 0.  1.
          2   -1    0    0  503    0  0.00000000000E+00 -0.00000000000E+00 -0.18146003689E+04  0.18146003689E+04  0.00000000000E+00 0. -1.
         24    2    1    2    0    0  0.19556265790E+02 -0.70827559124E+02 -0.10204846483E+03  0.15390251538E+03  0.88730515617E+02 0.  0.
         25    2    1    2    0    0 -0.18065195413E+03  0.24061232028E+03 -0.47671119899E+03  0.57741484850E+03  0.12499969127E+03 0.  0.
         24    2    1    2    0    0  0.72761011089E+02 -0.49826144217E+02 -0.59595622845E+03  0.60779495418E+03  0.80461610209E+02 0.  0.
        -11    1    3    3    0    0 -0.29583613194E+02 -0.54810419499E+02 -0.66860974392E+02  0.91377032957E+02  0.00000000000E+00 0.  1.
         12    1    3    3    0    0  0.49139878985E+02 -0.16017139625E+02 -0.35187490439E+02  0.62525482419E+02  0.00000000000E+00 0. -1.
        -11    1    5    5    0    0  0.67700164437E+02 -0.47145250487E+02 -0.28282993753E+03  0.29461629363E+03  0.00000000000E+00 0.  1.
         12    1    5    5    0    0  0.50608466527E+01 -0.26808937295E+01 -0.31312629092E+03  0.31317866056E+03  0.00000000000E+00 0. -1.
          5    1    4    4  502    0 -0.13490898678E+03  0.21975794957E+03 -0.31016819455E+03  0.40338615497E+03  0.47000000000E+01 0.  1.
         -5    1    4    4    0  502 -0.45742967351E+02  0.20854370704E+02 -0.16654300445E+03  0.17402869352E+03  0.47000000000E+01 0.  1.
          1    1    1    2  503    0 -0.14993871952E+02 -0.24639934584E+02 -0.48302913484E+03  0.48388954078E+03  0.00000000000E+00 0. -1.
         -4    1    1    2    0  501  0.10332854921E+03 -0.95318682354E+02 -0.76660383214E+01  0.14078781350E+03  0.00000000000E+00 0.  1.
<mgrwt>
<rscale>  0 0.66721445E+02</rscale>
<asrwt>0</asrwt>
<pdfrwt beam="2">  1        2 0.26685301E+00 0.28843415E+02</pdfrwt>
<pdfrwt beam="1">  1       -3 0.21939603E-01 0.15434203E+03</pdfrwt>
<totfact> 0.14701957E+02</totfact>
</mgrwt>
</event>
<event>
13    1  0.1595792E-008  0.2221581E+02  0.7546771E-02  0.1726456E+00
         -3   -1    0    0    0  502 -0.00000000000E+00  0.00000000000E+00  0.65678781779E+03  0.65678781779E+03  0.00000000000E+00 0.  1.
         -1   -1    0    0    0  501  0.00000000000E+00 -0.00000000000E+00 -0.84256672839E+03  0.84256672839E+03  0.00000000000E+00 0.  1.
         24    2    1    2    0    0 -0.65359700198E+01 -0.48368045269E+02  0.13343713914E+03  0.16381477562E+03  0.81532962058E+02 0.  0.
         25    2    1    2    0    0  0.93537065786E+01  0.67166054697E+02  0.97188640708E+02  0.17224513439E+03  0.12499593476E+03 0.  0.
         24    2    1    2    0    0 -0.38042279873E+02 -0.28780633362E+02 -0.17104322668E+03  0.19451204018E+03  0.79395267294E+02 0.  0.
        -11    1    5    5    0    0  0.23232073344E+02  0.11021945366E+01 -0.30979174985E+02  0.38738267223E+02  0.00000000000E+00 0.  1.
         12    1    5    5    0    0 -0.61274353217E+02 -0.29882827899E+02 -0.14006405170E+03  0.15577377296E+03  0.00000000000E+00 0. -1.
        -11    1    3    3    0    0  0.42544606799E+01 -0.14851046305E+02  0.12710311287E+03  0.12803849153E+03  0.00000000000E+00 0.  1.
         12    1    3    3    0    0 -0.10790430700E+02 -0.33516998963E+02  0.63340262663E+01  0.35776284085E+02  0.00000000000E+00 0. -1.
          5    1    4    4  503    0  0.31004889154E+02 -0.77813961017E+01  0.87767421536E+02  0.93525737419E+02  0.47000000000E+01 0. -1.
         -5    1    4    4    0  503 -0.21651182576E+02  0.74947450799E+02  0.94212191720E+01  0.78719396967E+02  0.47000000000E+01 0. -1.
         -2    1    1    2    0  501  0.21739537388E+02 -0.45411166910E+01 -0.60659719125E+03  0.60700360926E+03  0.00000000000E+00 0.  1.
         -4    1    1    2    0  502  0.13485005926E+02  0.14523740625E+02  0.36123572748E+03  0.36177898673E+03  0.00000000000E+00 0.  1.
<mgrwt>
<rscale>  0 0.20983099E+02</rscale>
<asrwt>0</asrwt>
<pdfrwt beam="2">  1       -1 0.12390687E+00 0.22215808E+02</pdfrwt>
<pdfrwt beam="1">  1       -3 0.96586444E-01 0.19818790E+02</pdfrwt>
<totfact> 0.29114659E+00</totfact>
</mgrwt>
</event>
<event>
13    1  0.1595792E-008  0.1450740E+03  0.7546771E-02  0.1309542E+00
          2   -1    0    0  502    0  0.00000000000E+00  0.00000000000E+00  0.19775992402E+03  0.19775992402E+03  0.00000000000E+00 0. -1.
          2   -1    0    0  503    0 -0.00000000000E+00 -0.00000000000E+00 -0.25166817582E+04  0.25166817582E+04  0.00000000000E+00 0. -1.
         24    2    1    2    0    0  0.33104971307E+02 -0.14248217554E+02 -0.20302667612E+03  0.22117989432E+03  0.80011021782E+02 0.  0.
         25    2    1    2    0    0 -0.21071198564E+02 -0.30613662330E+03 -0.66624263676E+03  0.74409086635E+03  0.12501335454E+03 0.  0.
         24    2    1    2    0    0  0.84337516790E+02  0.54050941095E+02 -0.20443369293E+01  0.14449013160E+03  0.10411002759E+03 0.  0.
        -11    1    3    3    0    0  0.13550013571E+02  0.31813362109E+02 -0.55431874085E+02  0.65332882540E+02  0.00000000000E+00 0.  1.
         12    1    3    3    0    0  0.19554957736E+02 -0.46061579663E+02 -0.14759480203E+03  0.15584701178E+03  0.00000000000E+00 0. -1.
        -11    1    5    5    0    0  0.81266510448E+01  0.65420629870E+02 -0.11289648012E+02  0.66883162470E+02  0.00000000000E+00 0.  1.
         12    1    5    5    0    0  0.76210865746E+02 -0.11369688775E+02  0.92453110828E+01  0.77606969130E+02  0.00000000000E+00 0. -1.
          5    1    4    4  501    0 -0.64613835836E+02 -0.25773070514E+03 -0.54753796528E+03  0.60862137457E+03  0.47000000000E+01 0. -1.
         -5    1    4    4    0  501  0.43542637272E+02 -0.48405918158E+02 -0.11870467147E+03  0.13546949178E+03  0.47000000000E+01 0. -1.
          1    1    1    2  502    0  0.10228825287E+02  0.51519956254E+02  0.59065297272E+02  0.79042040087E+02  0.00000000000E+00 0. -1.
          1    1    1    2  503    0 -0.10660011482E+03  0.21481394350E+03 -0.15066734816E+04  0.15256387499E+04  0.00000000000E+00 0. -1.
<mgrwt>
<rscale>  0 0.87293137E+02</rscale>
<asrwt>0</asrwt>
<pdfrwt beam="1">  1        2 0.29082342E-01 0.52525563E+02</pdfrwt>
<pdfrwt beam="2">  1        2 0.37010026E+00 0.14507397E+03</pdfrwt>
<totfact> 0.13230882E+02</totfact>
</mgrwt>
</event>
<event>
13    1  0.1595792E-008  0.1040147E+03  0.7546771E-02  0.1471432E+00
          2   -1    0    0  503    0  0.00000000000E+00  0.00000000000E+00  0.17386318745E+04  0.17386318745E+04  0.00000000000E+00 0. -1.
          2   -1    0    0  502    0 -0.00000000000E+00 -0.00000000000E+00 -0.18031183441E+04  0.18031183441E+04  0.00000000000E+00 0. -1.
         24    2    1    2    0    0 -0.13457728145E+03  0.81359285123E+02 -0.29219510284E+03  0.34057096625E+03  0.76682637991E+02 0.  0.
         25    2    1    2    0    0  0.25939807908E+02 -0.89744574443E+02  0.39897858512E+03  0.42841184075E+03  0.12500332652E+03 0.  0.
         24    2    1    2    0    0  0.11001300176E+02 -0.63902432161E+02  0.19930288991E+03  0.22436903306E+03  0.80095390809E+02 0.  0.
        -11    1    5    5    0    0  0.51903236001E+01 -0.82820295121E+02  0.16711516905E+03  0.18658408418E+03  0.00000000000E+00 0.  1.
         12    1    5    5    0    0  0.58109765755E+01  0.18917862960E+02  0.32187720859E+02  0.37784948880E+02  0.00000000000E+00 0. -1.
        -13    1    3    3    0    0 -0.36657814018E+01  0.15676867639E+02 -0.86932909394E+02  0.88411158051E+02  0.00000000000E+00 0.  1.
         14    1    3    3    0    0 -0.13091150005E+03  0.65682417484E+02 -0.20526219345E+03  0.25215980820E+03  0.00000000000E+00 0. -1.
          5    1    4    4  501    0  0.21808928501E+02  0.27612924080E+02  0.60932065765E+02  0.70518859726E+02  0.47000000000E+01 0. -1.
         -5    1    4    4    0  501  0.41308794065E+01 -0.11735749852E+03  0.33804651935E+03  0.35789298103E+03  0.47000000000E+01 0.  1.
          1    1    1    2  502    0  0.32281629521E+00  0.19874106114E+02 -0.14566127504E+04  0.14567483616E+04  0.00000000000E+00 0. -1.
          1    1    1    2  503    0  0.97313357075E+02  0.52413615368E+02  0.10860399086E+04  0.10916500170E+04  0.00000000000E+00 0. -1.
<mgrwt>
<rscale>  0 0.45469467E+02</rscale>
<asrwt>0</asrwt>
<pdfrwt beam="1">  1        2 0.25568116E+00 0.10401473E+03</pdfrwt>
<pdfrwt beam="2">  1        2 0.26516446E+00 0.19876728E+02</pdfrwt>
<totfact> 0.25578508E+01</totfact>
</mgrwt>
</event>
<event>
13    1  0.1595792E-008  0.1159924E+03  0.7546771E-02  0.1526114E+00
          2   -1    0    0  503    0  0.00000000000E+00  0.00000000000E+00  0.24813289815E+04  0.24813289815E+04  0.00000000000E+00 0. -1.
         -1   -1    0    0    0  501 -0.00000000000E+00 -0.00000000000E+00 -0.13239645300E+03  0.13239645300E+03  0.00000000000E+00 0.  1.
         24    2    1    2    0    0  0.32965449523E+02  0.51371464924E+02  0.24310325443E+02  0.10393960468E+03  0.80540059771E+02 0.  0.
         25    2    1    2    0    0 -0.93382771478E+02 -0.60358144596E+02  0.69394639474E+03  0.71382792208E+03  0.12500102378E+03 0.  0.
         24    2    1    2    0    0 -0.35027554785E+02  0.17406825555E+02  0.12905238952E+04  0.12936888557E+04  0.81541426465E+02 0.  0.
        -11    1    3    3    0    0  0.13282046539E+01  0.44023011416E+02  0.46929779980E+02  0.64359878113E+02  0.00000000000E+00 0.  1.
         12    1    3    3    0    0  0.31637244869E+02  0.73484535088E+01 -0.22619454537E+02  0.39579726571E+02  0.00000000000E+00 0. -1.
        -13    1    5    5    0    0  0.23904186889E+02 -0.87750812782E+01  0.30783607425E+03  0.30888745655E+03  0.00000000000E+00 0.  1.
         14    1    5    5    0    0 -0.58931741674E+02  0.26181906834E+02  0.98268782094E+03  0.98480139919E+03  0.00000000000E+00 0. -1.
          5    1    4    4  502    0 -0.82621164244E+02 -0.97523854601E+02  0.50958264719E+03  0.52538911610E+03  0.47000000000E+01 0. -1.
         -5    1    4    4    0  502 -0.10761607235E+02  0.37165710005E+02  0.18436374755E+03  0.18843880598E+03  0.47000000000E+01 0. -1.
          1    1    1    2  503    0 -0.75780978082E+01 -0.96019429974E+01  0.38833616696E+03  0.38852876785E+03  0.00000000000E+00 0. -1.
         -2    1    1    2    0  501  0.10302297455E+03  0.11817971131E+01 -0.48184253801E+02  0.11374028417E+03  0.00000000000E+00 0.  1.
<mgrwt>
<rscale>  0 0.37667398E+02</rscale>
<asrwt>0</asrwt>
<pdfrwt beam="1">  1        2 0.36490129E+00 0.12232125E+02</pdfrwt>
<pdfrwt beam="2">  1       -1 0.19470068E-01 0.11599235E+03</pdfrwt>
<totfact> 0.17114647E+02</totfact>
</mgrwt>
</event>
<event>
13    1  0.1595792E-008  0.4789243E+02  0.7546771E-02  0.1482600E+00
          2   -1    0    0  502    0  0.00000000000E+00  0.00000000000E+00  0.83597428233E+03  0.83597428233E+03  0.00000000000E+00 0. -1.
          2   -1    0    0  503    0 -0.00000000000E+00 -0.00000000000E+00 -0.24058580550E+04  0.24058580550E+04  0.00000000000E+00 0. -1.
         24    2    1    2    0    0 -0.31018342385E+02  0.14465364362E+02 -0.47134184033E+03  0.47941119946E+03  0.80626195426E+02 0.  0.
         25    2    1    2    0    0 -0.47830985456E+02 -0.13864119036E+03  0.70582851876E+01  0.19284098727E+03  0.12501457574E+03 0.  0.
         24    2    1    2    0    0  0.33446690059E+02  0.49234279411E+02  0.41129031811E+02  0.10744779390E+03  0.79440139805E+02 0.  0.
        -11    1    3    3    0    0 -0.23226504646E+02 -0.19389469699E+02 -0.66243316868E+02  0.72825813301E+02  0.00000000000E+00 0.  1.
         12    1    3    3    0    0 -0.77918377390E+01  0.33854834062E+02 -0.40509852346E+03  0.40658538616E+03  0.00000000000E+00 0. -1.
        -13    1    5    5    0    0 -0.21205053480E+02  0.31656668367E+02  0.31069584335E+02  0.49164194451E+02  0.00000000000E+00 0.  1.
         14    1    5    5    0    0  0.54651743539E+02  0.17577611043E+02  0.10059447475E+02  0.58283599454E+02  0.00000000000E+00 0. -1.
          5    1    4    4  501    0 -0.66465273923E+02 -0.20819788806E+02  0.20378141107E+02  0.72721763445E+02  0.47000000000E+01 0.  1.
         -5    1    4    4    0  501  0.18634288467E+02 -0.11782140155E+03 -0.13319855920E+02  0.12011922382E+03  0.47000000000E+01 0.  1.
          1    1    1    2  502    0  0.19035498304E+02  0.35045315166E+02  0.65677972921E+03  0.65798946573E+03  0.00000000000E+00 0. -1.
          1    1    1    2  503    0  0.26367139478E+02  0.39896231420E+02 -0.18035089785E+04  0.18041428909E+04  0.00000000000E+00 0. -1.
<mgrwt>
<rscale>  0 0.43703731E+02</rscale>
<asrwt>0</asrwt>
<pdfrwt beam="1">  1        2 0.12293740E+00 0.39881378E+02</pdfrwt>
<pdfrwt beam="2">  1        2 0.35380265E+00 0.47892429E+02</pdfrwt>
<totfact> 0.38104285E+01</totfact>
</mgrwt>
</event>
<event>
13    1  0.1595792E-008  0.1406174E+03  0.7546771E-02  0.1346716E+00
          2   -1    0    0  502    0  0.00000000000E+00  0.00000000000E+00  0.15617967037E+04  0.15617967037E+04  0.00000000000E+00 0. -1.
          2   -1    0    0  503    0 -0.00000000000E+00 -0.00000000000E+00 -0.11777490810E+04  0.11777490810E+04  0.00000000000E+00 0. -1.
         24    2    1    2    0    0  0.37765608260E+02  0.35257856540E+02  0.46957634393E+02  0.10541013509E+03  0.78974170062E+02 0.  0.
         25    2    1    2    0    0 -0.11083161880E+02 -0.96662324736E+02  0.10589146124E+03  0.19054192636E+03  0.12500713035E+03 0.  0.
         24    2    1    2    0    0  0.65954402900E+02 -0.34430867369E+02  0.10220715304E+03  0.15004052300E+03  0.80810819331E+02 0.  0.
        -11    1    5    5    0    0  0.48823981528E+02 -0.53521499277E+02  0.10108751691E+03  0.12436646707E+03  0.00000000000E+00 0.  1.
         12    1    5    5    0    0  0.17130421372E+02  0.19090631908E+02  0.11196361342E+01  0.25674055934E+02  0.00000000000E+00 0. -1.
        -11    1    3    3    0    0 -0.15157757427E+02 -0.23662804110E+01 -0.10592854392E+02  0.18643107503E+02  0.00000000000E+00 0.  1.
         12    1    3    3    0    0  0.52923365687E+02  0.37624136951E+02  0.57550488785E+02  0.86767027588E+02  0.00000000000E+00 0. -1.
          5    1    4    4  501    0 -0.24287716270E+02 -0.13955827846E+02  0.10274339108E+03  0.10659715148E+03  0.47000000000E+01 0.  1.
         -5    1    4    4    0  501  0.13204554390E+02 -0.82706496890E+02  0.31480701602E+01  0.83944774883E+02  0.47000000000E+01 0.  1.
          1    1    1    2  502    0 -0.12838468302E+03  0.80154067268E+02  0.12061894294E+04  0.12156480744E+04  0.00000000000E+00 0. -1.
          1    1    1    2  503    0  0.35747833741E+02  0.15681268296E+02 -0.10771980554E+04  0.10779051258E+04  0.00000000000E+00 0. -1.
<mgrwt>
<rscale>  0 0.74088746E+02</rscale>
<asrwt>0</asrwt>
<pdfrwt beam="1">  1        2 0.22967599E+00 0.14061741E+03</pdfrwt>
<pdfrwt beam="2">  1        2 0.17319839E+00 0.39036006E+02</pdfrwt>
<totfact> 0.56124364E+01</totfact>
</mgrwt>
</event>
<event>
13    1  0.1595792E-008  0.4931011E+02  0.7546771E-02  0.1472487E+00
          2   -1    0    0  503    0  0.00000000000E+00  0.00000000000E+00  0.97850201236E+03  0.97850201236E+03  0.00000000000E+00 0. -1.
         -1   -1    0    0    0  501 -0.00000000000E+00 -0.00000000000E+00 -0.55934868048E+03  0.55934868048E+03  0.00000000000E+00 0.  1.
         24    2    1    2    0    0  0.20213428456E+02  0.12825339002E+03  0.49983477466E+02  0.16020836121E+03  0.79440897787E+02 0.  0.
         25    2    1    2    0    0  0.20708693988E+02 -0.86267716454E+02  0.22158804694E+03  0.26943660515E+03  0.12499541088E+03 0.  0.
         24    2    1    2    0    0 -0.46961220087E+02 -0.33327228103E+02  0.27072286161E+03  0.28607565115E+03  0.72334984998E+02 0.  0.
        -11    1    5    5    0    0 -0.20228971489E+02  0.22002017590E+02  0.11058662942E+03  0.11455436557E+03  0.00000000000E+00 0.  1.
         12    1    5    5    0    0 -0.26732248598E+02 -0.55329245693E+02  0.16013623220E+03  0.17152128558E+03  0.00000000000E+00 0. -1.
        -11    1    3    3    0    0 -0.39060196691E+01 -0.10381035350E+02  0.71099451476E+00  0.11114332989E+02  0.00000000000E+00 0.  1.
         12    1    3    3    0    0  0.24119448125E+02  0.13863442537E+03  0.49272482951E+02  0.14909402822E+03  0.00000000000E+00 0. -1.
          5    1    4    4  502    0 -0.43365607696E+01 -0.30188392559E+02  0.20266101469E+03  0.20499688212E+03  0.47000000000E+01 0. -1.
         -5    1    4    4    0  502  0.25045254757E+02 -0.56079323896E+02  0.18927032248E+02  0.64439723030E+02  0.47000000000E+01 0. -1.
          1    1    1    2  503    0  0.88821933033E+01  0.40654144242E+02  0.34695728297E+03  0.34944385673E+03  0.00000000000E+00 0. -1.
         -2    1    1    2    0  501 -0.28430956603E+01 -0.49312589705E+02 -0.47009833711E+03  0.47268621859E+03  0.00000000000E+00 0.  1.
<mgrwt>
<rscale>  0 0.45298435E+02</rscale>
<asrwt>0</asrwt>
<pdfrwt beam="1">  1        2 0.14389736E+00 0.41613133E+02</pdfrwt>
<pdfrwt beam="2">  1       -1 0.82257158E-01 0.49310113E+02</pdfrwt>
<totfact> 0.59005304E+01</totfact>
</mgrwt>
</event>
<event>
13    1  0.1595792E-008  0.9964866E+02  0.7546771E-02  0.1383294E+00
          2   -1    0    0  503    0  0.00000000000E+00  0.00000000000E+00  0.16419037995E+04  0.16419037995E+04  0.00000000000E+00 0. -1.
          2   -1    0    0  502    0 -0.00000000000E+00 -0.00000000000E+00 -0.42996785874E+03  0.42996785874E+03  0.00000000000E+00 0. -1.
         24    2    1    2    0    0 -0.41292354694E+01 -0.10830533779E+03 -0.41724314323E+02  0.14156644772E+03  0.80950873597E+02 0.  0.
         25    2    1    2    0    0 -0.15219036448E+03  0.17258030193E+03  0.10100737112E+03  0.28066639402E+03  0.12500107220E+03 0.  0.
         24    2    1    2    0    0  0.22919520526E+02 -0.72788189279E+02 -0.23718060887E+02  0.11165474817E+03  0.77979557950E+02 0.  0.
        -11    1    3    3    0    0 -0.20406537400E+02 -0.10622872478E+03 -0.13623666525E+02  0.10902556134E+03  0.00000000000E+00 0.  1.
         12    1    3    3    0    0  0.16277301931E+02 -0.20766130110E+01 -0.28100647798E+02  0.32540886380E+02  0.00000000000E+00 0. -1.
        -11    1    5    5    0    0  0.99509077456E+01  0.14196596277E+02  0.67150214604E+01  0.18591810671E+02  0.00000000000E+00 0.  1.
         12    1    5    5    0    0  0.12968612781E+02 -0.86984785556E+02 -0.30433082347E+02  0.93062937503E+02  0.00000000000E+00 0. -1.
          5    1    4    4  501    0 -0.66590570495E+01  0.93557279560E+02  0.54558265577E+02  0.10860940080E+03  0.47000000000E+01 0.  1.
         -5    1    4    4    0  501 -0.14553130743E+03  0.79023022371E+02  0.46449105546E+02  0.17205699322E+03  0.47000000000E+01 0.  1.
          1    1    1    2  502    0  0.95433171806E+02  0.22895623332E+02 -0.16715960296E+03  0.19384022470E+03  0.00000000000E+00 0. -1.
          1    1    1    2  503    0  0.37966907621E+02 -0.14382398197E+02  0.13435305478E+04  0.13441438436E+04  0.00000000000E+00 0. -1.
<mgrwt>
<rscale>  0 0.63605900E+02</rscale>
<asrwt>0</asrwt>
<pdfrwt beam="1">  1        2 0.24145644E+00 0.40599747E+02</pdfrwt>
<pdfrwt beam="2">  1        2 0.63230568E-01 0.99648662E+02</pdfrwt>
<totfact> 0.17915339E+02</totfact>
</mgrwt>
</event>
<event>
13    1  0.1595792E-008  0.1461898E+03  0.7546771E-02  0.1361516E+00
          2   -1    0    0  502    0  0.00000000000E+00  0.00000000000E+00  0.12592727259E+04  0.12592727259E+04  0.00000000000E+00 0. -1.
          2   -1    0    0  503    0 -0.00000000000E+00 -0.00000000000E+00 -0.15299741776E+04  0.15299741776E+04  0.00000000000E+00 0. -1.
         24    2    1    2    0    0  0.44262263134E+02 -0.42221151037E+02 -0.21813805551E+03  0.24032093230E+03  0.80175842420E+02 0.  0.
         25    2    1    2    0    0 -0.28444878902E+02 -0.14946781637E+03 -0.35376676008E+03  0.40487876836E+03  0.12500462898E+03 0.  0.
         24    2    1    2    0    0 -0.90493445125E+02 -0.38322419080E+02  0.22194838531E+03  0.25552123880E+03  0.79826977415E+02 0.  0.
        -13    1    5    5    0    0 -0.12383313345E+02 -0.42474163893E+02  0.50927302978E+02  0.67461034949E+02  0.00000000000E+00 0.  1.
         14    1    5    5    0    0 -0.78110131779E+02  0.41517448136E+01  0.17102108233E+03  0.18806020385E+03  0.00000000000E+00 0. -1.
        -13    1    3    3    0    0  0.25632514070E+02 -0.51181772906E+02 -0.68530324026E+02  0.89291684756E+02  0.00000000000E+00 0.  1.
         14    1    3    3    0    0  0.18629749064E+02  0.89606218695E+01 -0.14960773148E+03  0.15102924754E+03  0.00000000000E+00 0. -1.
          5    1    4    4  501    0 -0.26815238898E+02 -0.25267459275E+02 -0.21663510138E+03  0.21979617532E+03  0.47000000000E+01 0.  1.
         -5    1    4    4    0  501 -0.16296400045E+01 -0.12420035709E+03 -0.13713165870E+03  0.18508259304E+03  0.47000000000E+01 0.  1.
          1    1    1    2  502    0  0.51499829984E+02  0.20635099245E+03  0.97208643928E+03  0.99508040379E+03  0.00000000000E+00 0. -1.
          1    1    1    2  503    0  0.23176230909E+02  0.23660394029E+02 -0.89283146072E+03  0.89344556027E+03  0.00000000000E+00 0. -1.
<mgrwt>
<rscale>  0 0.69583361E+02</rscale>
<asrwt>0</asrwt>
<pdfrwt beam="1">  1        2 0.18518717E+00 0.14618978E+03</pdfrwt>
<pdfrwt beam="2">  1        2 0.22499620E+00 0.33120265E+02</pdfrwt>
<totfact> 0.54751724E+01</totfact>
</mgrwt>
</event>
<event>
13    1  0.1595792E-008  0.1822367E+03  0.7546771E-02  0.1251113E+00
          2   -1    0    0  502    0  0.00000000000E+00  0.00000000000E+00  0.57227805339E+03  0.57227805339E+03  0.00000000000E+00 0. -1.
          2   -1    0    0  503    0 -0.00000000000E+00 -0.00000000000E+00 -0.36150822217E+04  0.36150822217E+04  0.00000000000E+00 0. -1.
         24    2    1    2    0    0 -0.18351959908E+02 -0.24389213299E+02 -0.26123118162E+03  0.27463003747E+03  0.79046183182E+02 0.  0.
         25    2    1    2    0    0 -0.39577884739E+02 -0.20871502818E+03 -0.13227795431E+03  0.27973264493E+03  0.12499809397E+03 0.  0.
         24    2    1    2    0    0 -0.10691898155E+02  0.33827287875E+01 -0.12968104783E+02  0.82258961510E+02  0.80452504416E+02 0.  0.
        -11    1    3    3    0    0 -0.19040741522E+02 -0.52474976942E+02 -0.15496476682E+03  0.16471263460E+03  0.00000000000E+00 0.  1.
         12    1    3    3    0    0  0.68878161395E+00  0.28085763643E+02 -0.10626641480E+03  0.10991740287E+03  0.00000000000E+00 0. -1.
        -13    1    5    5    0    0 -0.25027020914E+02 -0.27005591625E+02  0.13778992395E+02  0.39313030743E+02  0.00000000000E+00 0.  1.
         14    1    5    5    0    0  0.14335122758E+02  0.30388320412E+02 -0.26747097178E+02  0.42945930767E+02  0.00000000000E+00 0. -1.
          5    1    4    4  501    0 -0.61292800369E+02 -0.19035278362E+03 -0.14615886863E+03  0.24774078083E+03  0.47000000000E+01 0. -1.
         -5    1    4    4    0  501  0.21714915630E+02 -0.18362244556E+02  0.13880914321E+02  0.31991864096E+02  0.47000000000E+01 0. -1.
          1    1    1    2  502    0  0.85585561999E+02  0.15881258701E+03  0.43896061614E+03  0.47458692432E+03  0.00000000000E+00 0. -1.
          1    1    1    2  503    0 -0.16963819197E+02  0.70908925677E+02 -0.30752875438E+04  0.30761517069E+04  0.00000000000E+00 0. -1.
<mgrwt>
<rscale>  0 0.11526861E+03</rscale>
<asrwt>0</asrwt>
<pdfrwt beam="1">  1        2 0.84158540E-01 0.18223673E+03</pdfrwt>
<pdfrwt beam="2">  1        2 0.53162972E+00 0.72909855E+02</pdfrwt>
<totfact> 0.12133299E+01</totfact>
</mgrwt>
</event>
<event>
13    1  0.1595792E-008  0.5048804E+02  0.7546771E-02  0.1490742E+00
          2   -1    0    0  502    0  0.00000000000E+00  0.00000000000E+00  0.20821606582E+04  0.20821606582E+04  0.00000000000E+00 0. -1.
          2   -1    0    0  503    0 -0.00000000000E+00 -0.00000000000E+00 -0.93140791934E+03  0.93140791934E+03  0.00000000000E+00 0. -1.
         24    2    1    2    0    0  0.94746575763E+02  0.47310325435E+02 -0.24221042218E+02  0.13599638744E+03  0.81811845098E+02 0.  0.
         25    2    1    2    0    0 -0.30551367551E+03  0.18191946024E+03 -0.25981967600E+03  0.45778200402E+03  0.12499921290E+03 0.  0.
         24    2    1    2    0    0  0.13217977639E+03 -0.21038450835E+03  0.20637729167E+03  0.33291528529E+03  0.80671345746E+02 0.  0.
        -11    1    5    5    0    0  0.20990457957E+02 -0.47773321630E+02  0.70229239814E+01  0.52651790530E+02  0.00000000000E+00 0.  1.
         12    1    5    5    0    0  0.11118931843E+03 -0.16261118672E+03  0.19935436769E+03  0.28026349476E+03  0.00000000000E+00 0. -1.
        -11    1    3    3    0    0  0.10080163722E+03  0.56582088503E+02 -0.73682010505E+01  0.11583088186E+03  0.00000000000E+00 0.  1.
         12    1    3    3    0    0 -0.60550614603E+01 -0.92717630684E+01 -0.16852841168E+02  0.20165505575E+02  0.00000000000E+00 0. -1.
          5    1    4    4  501    0 -0.31663539667E+03  0.17905376694E+03 -0.24571036530E+03  0.43899191279E+03  0.47000000000E+01 0.  1.
         -5    1    4    4    0  501  0.11121721163E+02  0.28656933046E+01 -0.14109310704E+02  0.18790091226E+02  0.47000000000E+01 0.  1.
          1    1    1    2  502    0  0.50373072797E+02  0.30862098927E+01  0.16565167745E+04  0.16572853693E+04  0.00000000000E+00 0. -1.
          1    1    1    2  503    0  0.28214250563E+02 -0.21931487218E+02 -0.42810060908E+03  0.42958953148E+03  0.00000000000E+00 0. -1.
<mgrwt>
<rscale>  0 0.42476123E+02</rscale>
<asrwt>0</asrwt>
<pdfrwt beam="1">  1        2 0.30620010E+00 0.50488038E+02</pdfrwt>
<pdfrwt beam="2">  1        2 0.13697175E+00 0.35735613E+02</pdfrwt>
<totfact> 0.47449092E+01</totfact>
</mgrwt>
</event>
<event>
13    1  0.1595792E-008  0.2284688E+03  0.7546771E-02  0.1325933E+00
          2   -1    0    0  502    0  0.00000000000E+00  0.00000000000E+00  0.29353210644E+04  0.29353210644E+04  0.00000000000E+00 0. -1.
          2   -1    0    0  503    0 -0.00000000000E+00 -0.00000000000E+00 -0.25290880287E+04  0.25290880287E+04  0.00000000000E+00 0. -1.
         24    2    1    2    0    0 -0.61240903257E+02 -0.43084163685E+02 -0.12565012180E+04  0.12613342013E+04  0.81005945998E+02 0.  0.
         25    2    1    2    0    0  0.14386551075E+03 -0.28232025659E+02  0.12591920745E+03  0.23016589294E+03  0.12500543593E+03 0.  0.
         24    2    1    2    0    0  0.79404037388E+02  0.25071579785E+03  0.49406381644E+03  0.56545180914E+03  0.80456704513E+02 0.  0.
        -13    1    3    3    0    0 -0.11042952335E+02  0.22472742433E+02 -0.19022974309E+03  0.19187059729E+03  0.00000000000E+00 0.  1.
         14    1    3    3    0    0 -0.50197950923E+02 -0.65556906118E+02 -0.10662714749E+04  0.10694636040E+04  0.00000000000E+00 0. -1.
        -13    1    5    5    0    0  0.38164892004E+01  0.53581822549E+02  0.17335004353E+03  0.18148227156E+03  0.00000000000E+00 0.  1.
         14    1    5    5    0    0  0.75587548187E+02  0.19713397530E+03  0.32071377291E+03  0.38396953758E+03  0.00000000000E+00 0. -1.
          5    1    4    4  501    0  0.12154047456E+03 -0.72342919361E+02  0.80202647263E+02  0.16266572954E+03  0.47000000000E+01 0. -1.
         -5    1    4    4    0  501  0.22325036186E+02  0.44110893703E+02  0.45716560190E+02  0.67500163404E+02  0.47000000000E+01 0. -1.
          1    1    1    2  502    0 -0.17007830935E+03 -0.15175288931E+03  0.22190901311E+04  0.22307659180E+04  0.00000000000E+00 0. -1.
          1    1    1    2  503    0  0.80496644727E+01 -0.27646719193E+02 -0.11763389013E+04  0.11766912717E+04  0.00000000000E+00 0. -1.
<mgrwt>
<rscale>  0 0.81109214E+02</rscale>
<asrwt>0</asrwt>
<pdfrwt beam="1">  1        2 0.43166486E+00 0.22846882E+03</pdfrwt>
<pdfrwt beam="2">  1        2 0.37192471E+00 0.28794760E+02</pdfrwt>
<totfact> 0.26132933E+00</totfact>
</mgrwt>
</event>
<event>
13    1  0.1595792E-008  0.9249027E+02  0.7546771E-02  0.1298476E+00
          2   -1    0    0  502    0  0.00000000000E+00  0.00000000000E+00  0.42814120371E+03  0.42814120371E+03  0.00000000000E+00 0. -1.
          2   -1    0    0  503    0 -0.00000000000E+00 -0.00000000000E+00 -0.21551878818E+04  0.21551878818E+04  0.00000000000E+00 0. -1.
         24    2    1    2    0    0 -0.83393317941E+02 -0.27397378322E+02 -0.33440081594E+03  0.35488260115E+03  0.80079292475E+02 0.  0.
         25    2    1    2    0    0  0.20214039132E+03  0.22305400526E+02  0.10497103330E+02  0.23894298282E+03  0.12500116464E+03 0.  0.
         24    2    1    2    0    0  0.50966451116E+02  0.27821631339E+02  0.13363187556E+03  0.16486484876E+03  0.77144785186E+02 0.  0.
        -13    1    5    5    0    0  0.15360088986E+02 -0.24748920312E+02  0.22240095067E+02  0.36647826932E+02  0.00000000000E+00 0.  1.
         14    1    5    5    0    0  0.35606362130E+02  0.52570551651E+02  0.11139178049E+03  0.12821702183E+03  0.00000000000E+00 0. -1.
        -13    1    3    3    0    0 -0.23203420913E+02  0.19637830308E+02 -0.37295386507E+02  0.48114332335E+02  0.00000000000E+00 0.  1.
         14    1    3    3    0    0 -0.60189897027E+02 -0.47035208630E+02 -0.29710542943E+03  0.30676826881E+03  0.00000000000E+00 0. -1.
          5    1    4    4  501    0  0.20096733330E+03  0.48544697537E+02 -0.71981468072E+01  0.20692597718E+03  0.47000000000E+01 0. -1.
         -5    1    4    4    0  501  0.11730580232E+01 -0.26239297011E+02  0.17695250137E+02  0.32017005640E+02  0.47000000000E+01 0. -1.
          1    1    1    2  502    0 -0.88600185542E+02  0.21524123792E+02  0.12808155170E+03  0.15722011534E+03  0.00000000000E+00 0. -1.
          1    1    1    2  503    0 -0.81113338956E+02 -0.44253777335E+02 -0.16648563928E+04  0.16674185375E+04  0.00000000000E+00 0. -1.
<mgrwt>
<rscale>  0 0.91831387E+02</rscale>
<asrwt>0</asrwt>
<pdfrwt beam="1">  1        2 0.62961942E-01 0.91177194E+02</pdfrwt>
<pdfrwt beam="2">  1        2 0.31693939E+00 0.92490274E+02</pdfrwt>
<totfact> 0.94734854E+01</totfact>
</mgrwt>
</event>
<event>
13    1  0.1595792E-008  0.1180218E+03  0.7546771E-02  0.1254216E+00
          2   -1    0    0  503    0  0.00000000000E+00  0.00000000000E+00  0.16102953515E+04  0.16102953515E+04  0.00000000000E+00 0. -1.
         -3   -1    0    0    0  501 -0.00000000000E+00 -0.00000000000E+00 -0.52299720244E+03  0.52299720244E+03  0.00000000000E+00 0.  1.
         24    2    1    2    0    0 -0.52498760657E+02 -0.20564813978E+02 -0.82914807206E+02  0.13046622571E+03  0.83471787769E+02 0.  0.
         25    2    1    2    0    0 -0.28255196635E+02  0.32086376889E+02  0.33812743327E+03  0.36301541585E+03  0.12498855666E+03 0.  0.
         24    2    1    2    0    0  0.96973317227E+02 -0.22468002599E+01  0.27608027594E+03  0.30202505697E+03  0.74765927470E+02 0.  0.
        -11    1    5    5    0    0 -0.39085352186E+01  0.14715567904E+02  0.13986795389E+02  0.20674985648E+02  0.00000000000E+00 0.  1.
         12    1    5    5    0    0  0.10088185245E+03 -0.16962368164E+02  0.26209348055E+03  0.28135007132E+03  0.00000000000E+00 0. -1.
        -11    1    3    3    0    0 -0.67678213937E+02 -0.35781101592E+02 -0.76037658443E+02  0.10789973760E+03  0.00000000000E+00 0.  1.
         12    1    3    3    0    0  0.15179453280E+02  0.15216287613E+02 -0.68771487629E+01  0.22566488112E+02  0.00000000000E+00 0. -1.
          5    1    4    4  502    0 -0.33227127727E+02  0.78381185844E+02  0.22245059807E+03  0.23823100322E+03  0.47000000000E+01 0. -1.
         -5    1    4    4    0  502  0.49719310922E+01 -0.46294808955E+02  0.11567683519E+03  0.12478441263E+03  0.47000000000E+01 0. -1.
          1    1    1    2  503    0 -0.10345298409E+03  0.83488572633E+02  0.93168014600E+03  0.94111676009E+03  0.00000000000E+00 0. -1.
         -4    1    1    2    0  501  0.87233624150E+02 -0.92763335285E+02 -0.37567489889E+03  0.39666909536E+03  0.00000000000E+00 0.  1.
<mgrwt>
<rscale>  0 0.11350369E+03</rscale>
<asrwt>0</asrwt>
<pdfrwt beam="1">  1        2 0.23680814E+00 0.11802179E+03</pdfrwt>
<pdfrwt beam="2">  1       -3 0.76911353E-01 0.10915856E+03</pdfrwt>
<totfact> 0.13790542E+01</totfact>
</mgrwt>
</event>
<event>
13    1  0.1595792E-008  0.1858018E+03  0.7546771E-02  0.1195007E+00
          4   -1    0    0  503    0 -0.00000000000E+00  0.00000000000E+00  0.15475394941E+04  0.15475394941E+04  0.00000000000E+00 0. -1.
          2   -1    0    0  502    0  0.00000000000E+00 -0.00000000000E+00 -0.13617148215E+04  0.13617148215E+04  0.00000000000E+00 0. -1.
         24    2    1    2    0    0  0.20869490809E+03  0.39650047071E+02  0.15322504978E+03  0.27447069390E+03  0.82039960014E+02 0.  0.
         25    2    1    2    0    0 -0.17338953991E+03  0.17792165181E+03 -0.22146062066E+03  0.35551183066E+03  0.12499523395E+03 0.  0.
         24    2    1    2    0    0  0.22231662819E+02 -0.28198057736E+03 -0.23074523044E+03  0.37433050835E+03  0.82901599932E+02 0.  0.
        -11    1    3    3    0    0  0.49286711689E+02 -0.25408085311E+02  0.40785519184E+02  0.68834652054E+02  0.00000000000E+00 0.  1.
         12    1    3    3    0    0  0.15940819640E+03  0.65058132382E+02  0.11243953059E+03  0.20563604185E+03  0.00000000000E+00 0. -1.
        -13    1    5    5    0    0 -0.47831081648E+01 -0.51383680787E+01  0.58678943118E+01  0.91494881760E+01  0.00000000000E+00 0.  1.
         14    1    5    5    0    0  0.27014770984E+02 -0.27684220928E+03 -0.23661312475E+03  0.36518102017E+03  0.00000000000E+00 0. -1.
          5    1    4    4  501    0 -0.13603946818E+03  0.54934680568E+02 -0.93234791634E+02  0.17389471643E+03  0.47000000000E+01 0.  1.
         -5    1    4    4    0  501 -0.37350071723E+02  0.12298697124E+03 -0.12822582902E+03  0.18161711423E+03  0.47000000000E+01 0.  1.
          1    1    1    2  502    0 -0.40627517039E+02 -0.12194207343E+03 -0.69682865824E+03  0.70858354720E+03  0.00000000000E+00 0. -1.
          3    1    1    2  503    0 -0.16909513963E+02  0.18635095191E+03  0.11816341321E+04  0.11963577355E+04  0.00000000000E+00 0. -1.
<mgrwt>
<rscale>  0 0.15453631E+03</rscale>
<asrwt>0</asrwt>
<pdfrwt beam="2">  1        2 0.20025218E+00 0.12853196E+03</pdfrwt>
<pdfrwt beam="1">  1        4 0.22757934E+00 0.18580183E+03</pdfrwt>
<totfact> 0.95561091E-01</totfact>
</mgrwt>
</event>
<event>
13    1  0.1595792E-008  0.8567503E+02  0.7546771E-02  0.1315541E+00
          2   -1    0    0  503    0  0.00000000000E+00  0.00000000000E+00  0.31949801785E+04  0.31949801785E+04  0.00000000000E+00 0. -1.
          2   -1    0    0  502    0 -0.00000000000E+00 -0.00000000000E+00 -0.98707671084E+03  0.98707671084E+03  0.00000000000E+00 0. -1.
         24    2    1    2    0    0  0.11953435786E+02  0.82371466407E+00 -0.13922401301E+03  0.16141573646E+03  0.80796974237E+02 0.  0.
         25    2    1    2    0    0  0.98541375448E+02 -0.97629484489E+02  0.55866437993E+01  0.18680888636E+03  0.12499772205E+03 0.  0.
         24    2    1    2    0    0 -0.54930679835E+00 -0.17942055643E+02  0.31304899436E+03  0.32386854705E+03  0.81049020983E+02 0.  0.
        -11    1    5    5    0    0 -0.27257886227E+02 -0.19848730574E+02  0.27656533061E+03  0.27861325626E+03  0.00000000000E+00 0.  1.
         12    1    5    5    0    0  0.26708579429E+02  0.19066749315E+01  0.36483663747E+02  0.45255290793E+02  0.00000000000E+00 0. -1.
        -13    1    3    3    0    0 -0.30928452617E+02 -0.16463161720E+02 -0.52133805825E+02  0.62813522310E+02  0.00000000000E+00 0.  1.
         14    1    3    3    0    0  0.42881888403E+02  0.17286876384E+02 -0.87090207187E+02  0.98602214153E+02  0.00000000000E+00 0. -1.
          5    1    4    4  501    0  0.44713035566E+02 -0.33517256733E+01  0.51847338623E+02  0.68707540611E+02  0.47000000000E+01 0. -1.
         -5    1    4    4    0  501  0.53828339882E+02 -0.94277758816E+02 -0.46260694824E+02  0.11810134575E+03  0.47000000000E+01 0. -1.
          1    1    1    2  502    0 -0.95623409551E+02  0.13281826303E+02 -0.73663726094E+03  0.74293653670E+03  0.00000000000E+00 0. -1.
          1    1    1    2  503    0 -0.14322094884E+02  0.10146599917E+03  0.27651291034E+04  0.27670271827E+04  0.00000000000E+00 0. -1.
<mgrwt>
<rscale>  0 0.84958472E+02</rscale>
<asrwt>0</asrwt>
<pdfrwt beam="1">  1        2 0.46985002E+00 0.84247908E+02</pdfrwt>
<pdfrwt beam="2">  1        2 0.14515834E+00 0.85675028E+02</pdfrwt>
<totfact> 0.10938358E+01</totfact>
</mgrwt>
</event>
<event>
13    1  0.1595792E-008  0.1447503E+03  0.7546771E-02  0.1279101E+00
          2   -1    0    0  503    0  0.00000000000E+00  0.00000000000E+00  0.48248491911E+04  0.48248491911E+04  0.00000000000E+00 0. -1.
          2   -1    0    0  502    0 -0.00000000000E+00 -0.00000000000E+00 -0.41917964595E+03  0.41917964595E+03  0.00000000000E+00 0. -1.
         24    2    1    2    0    0 -0.90964041054E+02 -0.55468574795E+02  0.47407161658E+02  0.14374481733E+03  0.84047093805E+02 0.  0.
         25    2    1    2    0    0  0.26442188970E+01  0.54530663473E+02  0.11840203285E+03  0.18061672227E+03  0.12499109499E+03 0.  0.
         24    2    1    2    0    0  0.99094446987E+01 -0.80561473157E+02  0.12104687901E+04  0.12158993226E+04  0.81167252811E+02 0.  0.
        -11    1    3    3    0    0 -0.70554494295E+02 -0.60007572856E+02  0.67607970274E+02  0.11467206770E+03  0.00000000000E+00 0.  1.
         12    1    3    3    0    0 -0.20409546759E+02  0.45389980618E+01 -0.20200808615E+02  0.29072749630E+02  0.00000000000E+00 0. -1.
        -11    1    5    5    0    0  0.16244071724E+02 -0.85531966111E+02  0.11973197573E+04  0.12004808154E+04  0.00000000000E+00 0.  1.
         12    1    5    5    0    0 -0.63346270250E+01  0.49704929538E+01  0.13149032829E+02  0.15418507194E+02  0.00000000000E+00 0. -1.
          5    1    4    4  501    0 -0.18181203963E+02  0.98789331919E+01 -0.22707958032E+02  0.31078784670E+02  0.47000000000E+01 0. -1.
         -5    1    4    4    0  501  0.20825422860E+02  0.44651730281E+02  0.14110999088E+03  0.14953793760E+03  0.47000000000E+01 0. -1.
          1    1    1    2  502    0  0.14228911675E+03  0.53179552889E+02 -0.31969742435E+03  0.35395013875E+03  0.00000000000E+00 0. -1.
          1    1    1    2  503    0 -0.63878739290E+02  0.28319831589E+02  0.33490889849E+04  0.33498178361E+04  0.00000000000E+00 0. -1.
<mgrwt>
<rscale>  0 0.10057048E+03</rscale>
<asrwt>0</asrwt>
<pdfrwt beam="1">  1        2 0.70953661E+00 0.69874933E+02</pdfrwt>
<pdfrwt beam="2">  1        2 0.61644068E-01 0.14475035E+03</pdfrwt>
<totfact> 0.23211236E+00</totfact>
</mgrwt>
</event>
<event>
13    1  0.1595792E-008  0.7588637E+02  0.7546771E-02  0.1358927E+00
          2   -1    0    0  503    0  0.00000000000E+00  0.00000000000E+00  0.38586506425E+03  0.38586506425E+03  0.00000000000E+00 0. -1.
         -3   -1    0    0    0  501 -0.00000000000E+00 -0.00000000000E+00 -0.13544021166E+04  0.13544021166E+04  0.00000000000E+00 0.  1.
         24    2    1    2    0    0 -0.13037824677E+02  0.71548134123E+01 -0.20211841487E+03  0.21825641584E+03  0.81011315258E+02 0.  0.
         25    2    1    2    0    0 -0.16734021282E+03 -0.21220933194E+02 -0.30214516520E+02  0.21211363320E+03  0.12500480610E+03 0.  0.
         24    2    1    2    0    0  0.41967337757E+02  0.28412301957E+02  0.70734875208E+02  0.12399233016E+03  0.88329830898E+02 0.  0.
        -13    1    3    3    0    0  0.26904808575E+02 -0.10328888048E+02 -0.33974698876E+02  0.44551485009E+02  0.00000000000E+00 0.  1.
         14    1    3    3    0    0 -0.39942633252E+02  0.17483701460E+02 -0.16814371599E+03  0.17370493083E+03  0.00000000000E+00 0. -1.
        -13    1    5    5    0    0 -0.21167606952E+02  0.16023121828E+02 -0.23145938033E+01  0.26648927965E+02  0.00000000000E+00 0.  1.
         14    1    5    5    0    0  0.63134944709E+02  0.12389180129E+02  0.73049469012E+02  0.97343402193E+02  0.00000000000E+00 0. -1.
          5    1    4    4  502    0 -0.15557818943E+03 -0.61714683751E+02 -0.26515913058E+02  0.16952421320E+03  0.47000000000E+01 0. -1.
         -5    1    4    4    0  502 -0.11762023395E+02  0.40493750557E+02 -0.36986034618E+01  0.42589420002E+02  0.47000000000E+01 0. -1.
          1    1    1    2  503    0  0.65113836238E+02  0.34781429162E+01  0.18239439718E+03  0.19369983292E+03  0.00000000000E+00 0. -1.
         -4    1    1    2    0  501  0.73296863506E+02 -0.17824325091E+02 -0.98933339339E+03  0.99220496876E+03  0.00000000000E+00 0.  1.
<mgrwt>
<rscale>  0 0.70344135E+02</rscale>
<asrwt>0</asrwt>
<pdfrwt beam="1">  1        2 0.56744863E-01 0.65206665E+02</pdfrwt>
<pdfrwt beam="2">  1       -3 0.19917678E+00 0.75886373E+02</pdfrwt>
<totfact> 0.90264975E+00</totfact>
</mgrwt>
</event>
<event>
13    1  0.1595792E-008  0.4506035E+02  0.7546771E-02  0.1539987E+00
          2   -1    0    0  503    0  0.00000000000E+00  0.00000000000E+00  0.25232646269E+04  0.25232646269E+04  0.00000000000E+00 0. -1.
         -3   -1    0    0    0  501 -0.00000000000E+00 -0.00000000000E+00 -0.97596981439E+02  0.97596981439E+02  0.00000000000E+00 0.  1.
         24    2    1    2    0    0 -0.10708978631E+02  0.16761258412E+02  0.17532051036E+03  0.19361109472E+03  0.79701647649E+02 0.  0.
         25    2    1    2    0    0 -0.40117483624E+02  0.19209611004E+03  0.17676201884E+03  0.29219698218E+03  0.12499574835E+03 0.  0.
         24    2    1    2    0    0  0.15995969513E+02 -0.16225949005E+03  0.15500057912E+04  0.15620321346E+04  0.10412696008E+03 0.  0.
        -11    1    5    5    0    0  0.10537826710E+02 -0.13852185245E+03  0.82481255808E+03  0.83642997636E+03  0.00000000000E+00 0.  1.
         12    1    5    5    0    0  0.54581428029E+01 -0.23737637598E+02  0.72519323310E+03  0.72560215828E+03  0.00000000000E+00 0. -1.
        -11    1    3    3    0    0  0.23272709138E+02  0.23068882468E+02  0.30648214047E+02  0.44867642608E+02  0.00000000000E+00 0.  1.
         12    1    3    3    0    0 -0.33981687769E+02 -0.63076240559E+01  0.14467229632E+03  0.14874345211E+03  0.00000000000E+00 0. -1.
          5    1    4    4  502    0  0.39121452500E+02  0.76025321462E+02  0.34950617612E+02  0.92487692265E+02  0.47000000000E+01 0.  1.
         -5    1    4    4    0  502 -0.79238936124E+02  0.11607078858E+03  0.14181140123E+03  0.19970928992E+03  0.47000000000E+01 0.  1.
          1    1    1    2  503    0 -0.61768432918E+01 -0.28072702769E+02  0.52710288854E+03  0.52788605318E+03  0.00000000000E+00 0. -1.
         -4    1    1    2    0  501  0.41007336033E+02 -0.18525175640E+02 -0.35235634933E+01  0.45135343587E+02  0.00000000000E+00 0.  1.
<mgrwt>
<rscale>  0 0.35989229E+02</rscale>
<asrwt>0</asrwt>
<pdfrwt beam="1">  1        2 0.37106829E+00 0.28744217E+02</pdfrwt>
<pdfrwt beam="2">  1       -3 0.14352499E-01 0.45060353E+02</pdfrwt>
<totfact> 0.12776832E+02</totfact>
</mgrwt>
</event>
<event>
13    1  0.1595792E-008  0.7645660E+02  0.7546771E-02  0.1344092E+00
          2   -1    0    0  503    0  0.00000000000E+00  0.00000000000E+00  0.18903616813E+04  0.18903616813E+04  0.00000000000E+00 0. -1.
          2   -1    0    0  502    0 -0.00000000000E+00 -0.00000000000E+00 -0.15992000014E+04  0.15992000014E+04  0.00000000000E+00 0. -1.
         24    2    1    2    0    0 -0.34501935559E+02  0.32155417808E+02 -0.35721459421E+03  0.36932057832E+03  0.81062129250E+02 0.  0.
         25    2    1    2    0    0  0.12991737481E+02 -0.57052873327E+02  0.10455940209E+03  0.17315302052E+03  0.12500193740E+03 0.  0.
         24    2    1    2    0    0 -0.23199730983E+02  0.35379670457E+02  0.14442690351E+03  0.16976382857E+03  0.78553665930E+02 0.  0.
        -11    1    5    5    0    0  0.68836274929E+01  0.53603857865E+02  0.86568565248E+02  0.10205329193E+03  0.00000000000E+00 0.  1.
         12    1    5    5    0    0 -0.30083358476E+02 -0.18224187409E+02  0.57858338266E+02  0.67710536631E+02  0.00000000000E+00 0. -1.
        -11    1    3    3    0    0  0.48485817018E+01  0.48952514055E+02 -0.15458978630E+03  0.16222780096E+03  0.00000000000E+00 0.  1.
         12    1    3    3    0    0 -0.39350517261E+02 -0.16797096247E+02 -0.20262480791E+03  0.20709277735E+03  0.00000000000E+00 0. -1.
          5    1    4    4  501    0  0.58206021471E+02 -0.15926547508E+01  0.18809688501E+02  0.61370773713E+02  0.47000000000E+01 0. -1.
         -5    1    4    4    0  501 -0.45214283990E+02 -0.55460218576E+02  0.85749713592E+02  0.11178224681E+03  0.47000000000E+01 0. -1.
          1    1    1    2  502    0  0.43829565352E+02  0.62943692805E+02 -0.11868799144E+04  0.11893556535E+04  0.00000000000E+00 0. -1.
          1    1    1    2  503    0  0.88036370974E+00 -0.73425907743E+02  0.15862698829E+04  0.15879686018E+04  0.00000000000E+00 0. -1.
<mgrwt>
<rscale>  0 0.74928624E+02</rscale>
<asrwt>0</asrwt>
<pdfrwt beam="1">  1        2 0.27799437E+00 0.73431185E+02</pdfrwt>
<pdfrwt beam="2">  1        2 0.23517647E+00 0.76456599E+02</pdfrwt>
<totfact> 0.24325068E+01</totfact>
</mgrwt>
</event>
<event>
13    1  0.1595792E-008  0.1067907E+03  0.7546771E-02  0.1353832E+00
          2   -1    0    0  502    0  0.00000000000E+00  0.00000000000E+00  0.17714150180E+04  0.17714150180E+04  0.00000000000E+00 0. -1.
          2   -1    0    0  503    0 -0.00000000000E+00 -0.00000000000E+00 -0.35466415428E+04  0.35466415428E+04  0.00000000000E+00 0. -1.
         24    2    1    2    0    0 -0.21059761914E+02 -0.46991143227E+02 -0.31772138396E+03  0.33065692394E+03  0.75732703718E+02 0.  0.
         25    2    1    2    0    0  0.10181630138E+03  0.19885981585E+03 -0.14751002956E+03  0.29545863008E+03  0.12499923075E+03 0.  0.
         24    2    1    2    0    0 -0.24362758092E+02 -0.22609410002E+03 -0.61311534666E+02  0.24893385512E+03  0.80603187869E+02 0.  0.
        -11    1    3    3    0    0  0.17211017960E+02  0.10363261321E+02 -0.43749238189E+02  0.48141584587E+02  0.00000000000E+00 0.  1.
         12    1    3    3    0    0 -0.38270779874E+02 -0.57354404548E+02 -0.27397214577E+03  0.28251533935E+03  0.00000000000E+00 0. -1.
        -13    1    5    5    0    0  0.13922939379E+02 -0.10344387443E+02 -0.19071352572E+02  0.25779276201E+02  0.00000000000E+00 0.  1.
         14    1    5    5    0    0 -0.38285697471E+02 -0.21574971258E+03 -0.42240182093E+02  0.22315457892E+03  0.00000000000E+00 0. -1.
          5    1    4    4  501    0  0.98779291235E+02  0.20952120003E+03 -0.15721699333E+03  0.27999241888E+03  0.47000000000E+01 0. -1.
         -5    1    4    4    0  501  0.30370101463E+01 -0.10661384180E+02  0.97069637783E+01  0.15466211206E+02  0.47000000000E+01 0. -1.
          1    1    1    2  502    0  0.48324446558E+02  0.22015199988E+01  0.15953759595E+04  0.15961091914E+04  0.00000000000E+00 0. -1.
          1    1    1    2  503    0 -0.10471822793E+03  0.72023907408E+02 -0.28440595361E+04  0.28468979601E+04  0.00000000000E+00 0. -1.
<mgrwt>
<rscale>  0 0.71874563E+02</rscale>
<asrwt>0</asrwt>
<pdfrwt beam="1">  1        2 0.26050221E+00 0.48374568E+02</pdfrwt>
<pdfrwt beam="2">  1        2 0.52156493E+00 0.10679068E+03</pdfrwt>
<totfact> 0.27783121E+00</totfact>
</mgrwt>
</event>
<event>
13    1  0.1595792E-008  0.4174251E+02  0.7546771E-02  0.1630028E+00
          4   -1    0    0  503    0 -0.00000000000E+00  0.00000000000E+00  0.21045671332E+03  0.21045671332E+03  0.00000000000E+00 0. -1.
          2   -1    0    0  502    0  0.00000000000E+00 -0.00000000000E+00 -0.19242448636E+04  0.19242448636E+04  0.00000000000E+00 0. -1.
         24    2    1    2    0    0 -0.19633910544E+02 -0.29720666903E+02  0.25058357092E+02  0.91995888155E+02  0.81034027994E+02 0.  0.
         25    2    1    2    0    0  0.33885242465E+02  0.18389352992E+02 -0.46116909398E+03  0.47936207771E+03  0.12499876136E+03 0.  0.
         24    2    1    2    0    0 -0.12217633643E+02 -0.42895730190E+02 -0.70299006192E+03  0.70903713339E+03  0.80927839058E+02 0.  0.
        -11    1    3    3    0    0 -0.34899504911E+02 -0.47555580814E+02  0.18974610307E+01  0.59017870750E+02  0.00000000000E+00 0.  1.
         12    1    3    3    0    0  0.15265594367E+02  0.17834913911E+02  0.23160896061E+02  0.32978017405E+02  0.00000000000E+00 0. -1.
        -11    1    5    5    0    0  0.23730831530E+02 -0.43693927846E+02 -0.26875448093E+03  0.27331535397E+03  0.00000000000E+00 0.  1.
         12    1    5    5    0    0 -0.35948465172E+02  0.79819765662E+00 -0.43423558099E+03  0.43572177942E+03  0.00000000000E+00 0. -1.
          5    1    4    4  501    0 -0.42706276471E+02  0.17374133819E+02 -0.25907811808E+03  0.26319051625E+03  0.47000000000E+01 0. -1.
         -5    1    4    4    0  501  0.76591518937E+02  0.10152191727E+01 -0.20209097590E+03  0.21617156146E+03  0.47000000000E+01 0. -1.
          1    1    1    2  502    0 -0.11550726609E+02  0.13611938768E+02 -0.71127075586E+03  0.71149475915E+03  0.00000000000E+00 0. -1.
          3    1    1    2  503    0  0.95170283298E+01  0.40615105333E+02  0.13658340435E+03  0.14281171855E+03  0.00000000000E+00 0. -1.
<mgrwt>
<rscale>  0 0.27298339E+02</rscale>
<asrwt>0</asrwt>
<pdfrwt beam="2">  1        2 0.28297717E+00 0.17852287E+02</pdfrwt>
<pdfrwt beam="1">  1        4 0.30949518E-01 0.41742511E+02</pdfrwt>
<totfact> 0.54031538E+01</totfact>
</mgrwt>
</event>
<event>
13    1  0.1595792E-008  0.1006618E+03  0.7546771E-02  0.1382484E+00
          2   -1    0    0  502    0  0.00000000000E+00  0.00000000000E+00  0.27893473354E+04  0.27893473354E+04  0.00000000000E+00 0. -1.
          2   -1    0    0  503    0 -0.00000000000E+00 -0.00000000000E+00 -0.23117600258E+04  0.23117600258E+04  0.00000000000E+00 0. -1.
         24    2    1    2    0    0 -0.69277076860E+03 -0.89138024229E+03 -0.34671532138E+03  0.11838642533E+04  0.82661853700E+02 0.  0.
         25    2    1    2    0    0  0.80595984742E+03  0.79858699921E+03 -0.19996073993E+02  0.11416364464E+04  0.12498584641E+03 0.  0.
         24    2    1    2    0    0 -0.17521959312E+03  0.13991684060E+03  0.63726499789E+03  0.68399194559E+03  0.10704987625E+03 0.  0.
        -11    1    5    5    0    0 -0.17518461887E+02  0.61862519767E+02  0.25808669627E+03  0.26597483086E+03  0.00000000000E+00 0.  1.
         12    1    5    5    0    0 -0.15770113123E+03  0.78054320829E+02  0.37917830162E+03  0.41801711473E+03  0.00000000000E+00 0. -1.
        -13    1    3    3    0    0 -0.80025323479E+02 -0.87361268722E+02 -0.12381993871E+02  0.11911908933E+03  0.00000000000E+00 0.  1.
         14    1    3    3    0    0 -0.61274544512E+03 -0.80401897357E+03 -0.33433332751E+03  0.10647451640E+04  0.00000000000E+00 0. -1.
          5    1    4    4  501    0  0.54020332342E+03  0.46585246340E+03  0.22172637305E+02  0.71368891272E+03  0.47000000000E+01 0. -1.
         -5    1    4    4    0  501  0.26575652399E+03  0.33273453580E+03 -0.42168711298E+02  0.42794753367E+03  0.47000000000E+01 0. -1.
          1    1    1    2  502    0  0.97055076657E+02 -0.26875367631E+02  0.11466820458E+04  0.11510958637E+04  0.00000000000E+00 0. -1.
          1    1    1    2  503    0 -0.35024562360E+02 -0.20248229879E+02 -0.93964833875E+03  0.94051885218E+03  0.00000000000E+00 0. -1.
<mgrwt>
<rscale>  0 0.63815364E+02</rscale>
<asrwt>0</asrwt>
<pdfrwt beam="1">  1        2 0.41019814E+00 0.10066176E+03</pdfrwt>
<pdfrwt beam="2">  1        2 0.33996471E+00 0.40456282E+02</pdfrwt>
<totfact> 0.42145952E+00</totfact>
</mgrwt>
</event>
<event>
13    1  0.1595792E-008  0.9848942E+02  0.7546771E-02  0.1496050E+00
         -1   -1    0    0    0  501 -0.00000000000E+00  0.00000000000E+00  0.22451072430E+03  0.22451072430E+03  0.00000000000E+00 0.  1.
          2   -1    0    0  503    0  0.00000000000E+00 -0.00000000000E+00 -0.12128053070E+04  0.12128053070E+04  0.00000000000E+00 0. -1.
         24    2    1    2    0    0  0.53278553886E+02  0.79924395479E+01 -0.39567336906E+02  0.10891597915E+03  0.85992051782E+02 0.  0.
         25    2    1    2    0    0  0.17586125595E+03  0.82167478083E+02 -0.43802738376E+03  0.49514829008E+03  0.12500065777E+03 0.  0.
         24    2    1    2    0    0 -0.17551937100E+03  0.12373063207E+00 -0.42052706869E+03  0.46319332694E+03  0.83054065036E+02 0.  0.
        -11    1    3    3    0    0  0.69185732846E+02  0.28931485177E+02 -0.32161826990E+02  0.81597056192E+02  0.00000000000E+00 0.  1.
         12    1    3    3    0    0 -0.15907178960E+02 -0.20939045629E+02 -0.74055099159E+01  0.27318922955E+02  0.00000000000E+00 0. -1.
        -13    1    5    5    0    0 -0.18097669517E+03  0.10656806412E+02 -0.40436704562E+03  0.44314652126E+03  0.00000000000E+00 0.  1.
         14    1    5    5    0    0  0.54573241782E+01 -0.10533075780E+02 -0.16160023072E+02  0.20046805687E+02  0.00000000000E+00 0. -1.
          5    1    4    4  502    0  0.15294834682E+03  0.10559278526E+03 -0.41523742860E+03  0.45495850933E+03  0.47000000000E+01 0. -1.
         -5    1    4    4    0  502  0.22912909124E+02 -0.23425307174E+02 -0.22789955162E+02  0.40189780754E+02  0.47000000000E+01 0. -1.
          1    1    1    2  503    0  0.95574382608E+01 -0.14846755957E+02 -0.21240725008E+03  0.21313988523E+03  0.00000000000E+00 0. -1.
         -2    1    1    2    0  501 -0.63177877100E+02 -0.75436892306E+02  0.12223445677E+03  0.15691854988E+03  0.00000000000E+00 0.  1.
<mgrwt>
<rscale>  0 0.41701688E+02</rscale>
<asrwt>0</asrwt>
<pdfrwt beam="2">  1        2 0.17835372E+00 0.17657032E+02</pdfrwt>
<pdfrwt beam="1">  1       -1 0.33016284E-01 0.98489416E+02</pdfrwt>
<totfact> 0.24701358E+02</totfact>
</mgrwt>
</event>
<event>
13    1  0.1595792E-008  0.1744937E+03  0.7546771E-02  0.1354946E+00
          2   -1    0    0  502    0  0.00000000000E+00  0.00000000000E+00  0.27407605193E+04  0.27407605193E+04  0.00000000000E+00 0. -1.
          2   -1    0    0  503    0 -0.00000000000E+00 -0.00000000000E+00 -0.23484919848E+04  0.23484919848E+04  0.00000000000E+00 0. -1.
         24    2    1    2    0    0 -0.91806262100E+02  0.72953201607E+02 -0.28128544132E+03  0.31511025506E+03  0.80139964802E+02 0.  0.
         25    2    1    2    0    0 -0.15776395549E+03 -0.16441029836E+03  0.20127235188E+03  0.32871901300E+03  0.12500167206E+03 0.  0.
         24    2    1    2    0    0 -0.53811104345E+02  0.81276902900E+02  0.73416596296E+02  0.14505118909E+03  0.78410974669E+02 0.  0.
        -11    1    5    5    0    0 -0.92514886250E+00 -0.11786993206E+02 -0.45043668262E+01  0.12652210469E+02  0.00000000000E+00 0.  1.
         12    1    5    5    0    0 -0.52885955482E+02  0.93063896106E+02  0.77920963122E+02  0.13239897862E+03  0.00000000000E+00 0. -1.
        -11    1    3    3    0    0 -0.23279748050E+02  0.63501351418E+02 -0.18150073490E+03  0.19369275947E+03  0.00000000000E+00 0.  1.
         12    1    3    3    0    0 -0.68526514050E+02  0.94518501890E+01 -0.99784706417E+02  0.12141749559E+03  0.00000000000E+00 0. -1.
          5    1    4    4  501    0 -0.80093282064E+02 -0.10544192849E+03  0.36900393074E+02  0.13753786069E+03  0.47000000000E+01 0. -1.
         -5    1    4    4    0  501 -0.77670673428E+02 -0.58968369875E+02  0.16437195881E+03  0.19118115231E+03  0.47000000000E+01 0. -1.
          1    1    1    2  502    0  0.27308974565E+02 -0.10691603252E+02  0.23397028476E+04  0.23398866437E+04  0.00000000000E+00 0. -1.
          1    1    1    2  503    0  0.27607234737E+03  0.20871797109E+02 -0.19408378200E+04  0.19604854033E+04  0.00000000000E+00 0. -1.
<mgrwt>
<rscale>  0 0.71536209E+02</rscale>
<asrwt>0</asrwt>
<pdfrwt beam="1">  1        2 0.40305302E+00 0.29327299E+02</pdfrwt>
<pdfrwt beam="2">  1        2 0.34536647E+00 0.17449371E+03</pdfrwt>
<totfact> 0.43217537E+00</totfact>
</mgrwt>
</event>
<event>
13    1  0.1595792E-008  0.1453348E+03  0.7546771E-02  0.1246328E+00
          2   -1    0    0  503    0  0.00000000000E+00  0.00000000000E+00  0.11376877503E+04  0.11376877503E+04  0.00000000000E+00 0. -1.
          2   -1    0    0  502    0 -0.00000000000E+00 -0.00000000000E+00 -0.18368722250E+04  0.18368722250E+04  0.00000000000E+00 0. -1.
         24    2    1    2    0    0 -0.48853491822E+02  0.42489437289E+02 -0.46303520436E+02  0.11242802366E+03  0.79397912789E+02 0.  0.
         25    2    1    2    0    0 -0.43427654319E+02  0.23774896921E+03  0.18270518944E+03  0.32774465425E+03  0.12499935449E+03 0.  0.
         24    2    1    2    0    0 -0.62628807193E+02 -0.41211124377E+02 -0.19740238853E+02  0.11173764092E+03  0.80466757771E+02 0.  0.
        -11    1    3    3    0    0 -0.30589544257E+02  0.48864827096E+02 -0.64051857364E+02  0.86175007843E+02  0.00000000000E+00 0.  1.
         12    1    3    3    0    0 -0.18263947565E+02 -0.63753898064E+01  0.17748336928E+02  0.26253015818E+02  0.00000000000E+00 0. -1.
        -13    1    5    5    0    0 -0.27893162949E+02  0.22186002639E+02  0.34810322915E+01  0.35810122008E+02  0.00000000000E+00 0.  1.
         14    1    5    5    0    0 -0.34735644243E+02 -0.63397127016E+02 -0.23221271144E+02  0.75927518914E+02  0.00000000000E+00 0. -1.
          5    1    4    4  501    0 -0.39138228072E+02  0.78695520219E+02  0.13574329252E+03  0.16178107820E+03  0.47000000000E+01 0. -1.
         -5    1    4    4    0  501 -0.42894262466E+01  0.15905344900E+03  0.46961896918E+02  0.16596357606E+03  0.47000000000E+01 0. -1.
          1    1    1    2  502    0  0.29291530299E+02 -0.24021973283E+03 -0.16052113036E+04  0.16233504991E+04  0.00000000000E+00 0. -1.
          1    1    1    2  503    0  0.12561842303E+03  0.11924506980E+01  0.78936539872E+03  0.79929915729E+03  0.00000000000E+00 0. -1.
<mgrwt>
<rscale>  0 0.11806256E+03</rscale>
<asrwt>0</asrwt>
<pdfrwt beam="1">  1        2 0.16730702E+00 0.95907968E+02</pdfrwt>
<pdfrwt beam="2">  1        2 0.27012827E+00 0.14533482E+03</pdfrwt>
<totfact> 0.40723993E+01</totfact>
</mgrwt>
</event>
<event>
13    1  0.1595792E-008  0.1110122E+03  0.7546771E-02  0.1363157E+00
          2   -1    0    0  503    0  0.00000000000E+00  0.00000000000E+00  0.29378448853E+04  0.29378448853E+04  0.00000000000E+00 0. -1.
          2   -1    0    0  502    0 -0.00000000000E+00 -0.00000000000E+00 -0.19253605931E+03  0.19253605931E+03  0.00000000000E+00 0. -1.
         24    2    1    2    0    0 -0.33730146959E+02 -0.15855931432E+02 -0.58709952995E+02  0.10600499035E+03  0.80006662364E+02 0.  0.
         25    2    1    2    0    0 -0.59631988844E+02  0.16553646251E+03  0.24687292554E+03  0.32791626158E+03  0.12499815489E+03 0.  0.
         24    2    1    2    0    0 -0.17243955615E+02 -0.17827033396E+03  0.50326668534E+03  0.53977971146E+03  0.77505576321E+02 0.  0.
        -11    1    5    5    0    0 -0.15590015500E+02 -0.26754706341E+02  0.31065105881E+02  0.43862326638E+02  0.00000000000E+00 0.  1.
         12    1    5    5    0    0 -0.16539401157E+01 -0.15151562762E+03  0.47220157946E+03  0.49591738483E+03  0.00000000000E+00 0. -1.
        -13    1    3    3    0    0 -0.54413178374E+02  0.44836958849E+01 -0.21158755528E+02  0.58554166761E+02  0.00000000000E+00 0.  1.
         14    1    3    3    0    0  0.20683031415E+02 -0.20339627317E+02 -0.37551197467E+02  0.47450823587E+02  0.00000000000E+00 0. -1.
          5    1    4    4  501    0 -0.67400496910E+02  0.12144125155E+03  0.92077225531E+02  0.16670665861E+03  0.47000000000E+01 0.  1.
         -5    1    4    4    0  501  0.77685080656E+01  0.44095210958E+02  0.15479570001E+03  0.16120960297E+03  0.47000000000E+01 0.  1.
          1    1    1    2  502    0 -0.39693367283E+00  0.43018030949E+02 -0.40634930346E+02  0.59176905185E+02  0.00000000000E+00 0. -1.
          1    1    1    2  503    0  0.11100302509E+03 -0.14428228068E+02  0.20945140985E+04  0.20975030761E+04  0.00000000000E+00 0. -1.
<mgrwt>
<rscale>  0 0.69106669E+02</rscale>
<asrwt>0</asrwt>
<pdfrwt beam="1">  1        2 0.43203599E+00 0.11101225E+03</pdfrwt>
<pdfrwt beam="2">  1        2 0.28314128E-01 0.43019862E+02</pdfrwt>
<totfact> 0.84949232E+01</totfact>
</mgrwt>
</event>
<event>
13    1  0.1595792E-008  0.4576917E+02  0.7546771E-02  0.1555101E+00
          2   -1    0    0  503    0  0.00000000000E+00  0.00000000000E+00  0.35417531379E+04  0.35417531379E+04  0.00000000000E+00 0. -1.
          2   -1    0    0  502    0 -0.00000000000E+00 -0.00000000000E+00 -0.12266123417E+04  0.12266123417E+04  0.00000000000E+00 0. -1.
         24    2    1    2    0    0  0.53098375700E+03  0.74385494225E+02 -0.41730911458E+03  0.68418864428E+03  0.80562099658E+02 0.  0.
         25    2    1    2    0    0 -0.60921388046E+03 -0.61676359321E+03  0.74819079036E+03  0.11519323033E+04  0.12497876056E+03 0.  0.
         24    2    1    2    0    0  0.80286863162E+02  0.59771720985E+03  0.19454912748E+04  0.20389776897E+04  0.93711661087E+02 0.  0.
        -11    1    3    3    0    0  0.49104425372E+02 -0.16513048086E+02 -0.40563764757E+02  0.65797753453E+02  0.00000000000E+00 0.  1.
         12    1    3    3    0    0  0.48187933163E+03  0.90898542311E+02 -0.37674534982E+03  0.61839089082E+03  0.00000000000E+00 0. -1.
        -13    1    5    5    0    0  0.73477012437E+02  0.54752502906E+03  0.16739021090E+04  0.17627055340E+04  0.00000000000E+00 0.  1.
         14    1    5    5    0    0  0.68098507249E+01  0.50192180785E+02  0.27158916572E+03  0.27627215570E+03  0.00000000000E+00 0. -1.
          5    1    4    4  501    0 -0.29377656782E+03 -0.32608889679E+03  0.45585528385E+03  0.63282285848E+03  0.47000000000E+01 0. -1.
         -5    1    4    4    0  501 -0.31543731264E+03 -0.29067469642E+03  0.29233550651E+03  0.51910944483E+03  0.47000000000E+01 0. -1.
          1    1    1    2  502    0 -0.21559582148E+02 -0.13938444776E+02 -0.42573833499E+03  0.42651169468E+03  0.00000000000E+00 0. -1.
          1    1    1    2  503    0  0.19502842446E+02 -0.41400666086E+02  0.46450618064E+03  0.46675514766E+03  0.00000000000E+00 0. -1.
<mgrwt>
<rscale>  0 0.34278647E+02</rscale>
<asrwt>0</asrwt>
<pdfrwt beam="1">  1        2 0.52084605E+00 0.45769174E+02</pdfrwt>
<pdfrwt beam="2">  1        2 0.18038417E+00 0.25672862E+02</pdfrwt>
<totfact> 0.62659490E+00</totfact>
</mgrwt>
</event>
<event>
13    1  0.1595792E-008  0.5890681E+02  0.7546771E-02  0.1456731E+00
          2   -1    0    0  502    0  0.00000000000E+00  0.00000000000E+00  0.18164019802E+04  0.18164019802E+04  0.00000000000E+00 0. -1.
          2   -1    0    0  503    0 -0.00000000000E+00 -0.00000000000E+00 -0.15198141164E+04  0.15198141164E+04  0.00000000000E+00 0. -1.
         24    2    1    2    0    0  0.23812329296E+02 -0.12537771453E+01 -0.14283257317E+03  0.16392497498E+03  0.76822226464E+02 0.  0.
         25    2    1    2    0    0 -0.14711545012E+03 -0.62199301929E+02  0.27680644644E+03  0.34316003448E+03  0.12500116659E+03 0.  0.
         24    2    1    2    0    0  0.77255083803E+02  0.84618249830E+02  0.80627233430E+03  0.81730053620E+03  0.69112178696E+02 0.  0.
        -11    1    3    3    0    0  0.18486439510E+02 -0.38496775188E+02 -0.71635088561E+02  0.83398657416E+02  0.00000000000E+00 0.  1.
         12    1    3    3    0    0  0.53258897865E+01  0.37242998042E+02 -0.71197484613E+02  0.80526317564E+02  0.00000000000E+00 0. -1.
        -11    1    5    5    0    0  0.12174782357E+01 -0.11066751082E+02  0.50776903931E+02  0.51983162712E+02  0.00000000000E+00 0.  1.
         12    1    5    5    0    0  0.76037605567E+02  0.95685000912E+02  0.75549543037E+03  0.76531737349E+03  0.00000000000E+00 0. -1.
          5    1    4    4  501    0 -0.95703238317E+02  0.26414357770E+02  0.15216427587E+03  0.18174951162E+03  0.47000000000E+01 0. -1.
         -5    1    4    4    0  501 -0.51412211804E+02 -0.88613659699E+02  0.12464217057E+03  0.16141052287E+03  0.47000000000E+01 0. -1.
          1    1    1    2  502    0  0.56726631761E+02  0.16374555474E+02  0.68252450315E+03  0.68507352468E+03  0.00000000000E+00 0. -1.
          1    1    1    2  503    0 -0.10678594739E+02 -0.37539726230E+02 -0.13261828469E+04  0.13267570263E+04  0.00000000000E+00 0. -1.
<mgrwt>
<rscale>  0 0.47948665E+02</rscale>
<asrwt>0</asrwt>
<pdfrwt beam="1">  1        2 0.26711794E+00 0.58906814E+02</pdfrwt>
<pdfrwt beam="2">  1        2 0.22350208E+00 0.39029008E+02</pdfrwt>
<totfact> 0.31148643E+01</totfact>
</mgrwt>
</event>
<event>
13    1  0.1595792E-008  0.7931488E+02  0.7546771E-02  0.1365351E+00
          2   -1    0    0  503    0  0.00000000000E+00  0.00000000000E+00  0.30487503048E+04  0.30487503048E+04  0.00000000000E+00 0. -1.
          2   -1    0    0  502    0 -0.00000000000E+00 -0.00000000000E+00 -0.27044522260E+04  0.27044522260E+04  0.00000000000E+00 0. -1.
         24    2    1    2    0    0  0.62475201611E+02 -0.29175954146E+02 -0.25657927527E+03  0.27751706606E+03  0.80177367992E+02 0.  0.
         25    2    1    2    0    0  0.13387100928E+02  0.25343360281E+02  0.12148216986E+02  0.12881609426E+03  0.12499802631E+03 0.  0.
         24    2    1    2    0    0 -0.87691785002E+02  0.31251313523E+02  0.70989307850E+03  0.72070694238E+03  0.82485272211E+02 0.  0.
        -11    1    3    3    0    0  0.43548327632E+02 -0.56724920288E+02 -0.15814104083E+03  0.17355910295E+03  0.00000000000E+00 0.  1.
         12    1    3    3    0    0  0.18926873979E+02  0.27548966142E+02 -0.98438234446E+02  0.10395796311E+03  0.00000000000E+00 0. -1.
        -11    1    5    5    0    0 -0.16517710394E+02 -0.26869852902E+02  0.22288072297E+03  0.22510140031E+03  0.00000000000E+00 0.  1.
         12    1    5    5    0    0 -0.71174074608E+02  0.58121166425E+02  0.48701235553E+03  0.49560554206E+03  0.00000000000E+00 0. -1.
          5    1    4    4  501    0  0.49870676341E+02  0.42140806283E+02  0.42680844887E+02  0.78145226554E+02  0.47000000000E+01 0.  1.
         -5    1    4    4    0  501 -0.36483575413E+02 -0.16797446002E+02 -0.30532627901E+02  0.50670867702E+02  0.47000000000E+01 0.  1.
          1    1    1    2  502    0  0.70148915125E+02 -0.37113177494E+02 -0.23726116962E+04  0.23739386090E+04  0.00000000000E+00 0. -1.
          1    1    1    2  503    0 -0.58319432661E+02  0.96944578363E+01  0.22514477548E+04  0.22522238191E+04  0.00000000000E+00 0. -1.
<mgrwt>
<rscale>  0 0.68476796E+02</rscale>
<asrwt>0</asrwt>
<pdfrwt beam="1">  1        2 0.44834564E+00 0.59119698E+02</pdfrwt>
<pdfrwt beam="2">  1        2 0.39771356E+00 0.79314877E+02</pdfrwt>
<totfact> 0.19699263E+00</totfact>
</mgrwt>
</event>
<event>
13    1  0.1595792E-008  0.8135558E+02  0.7546771E-02  0.1483472E+00
          2   -1    0    0  503    0  0.00000000000E+00  0.00000000000E+00  0.16984925384E+04  0.16984925384E+04  0.00000000000E+00 0. -1.
         -1   -1    0    0    0  501 -0.00000000000E+00 -0.00000000000E+00 -0.44583454460E+03  0.44583454460E+03  0.00000000000E+00 0.  1.
         24    2    1    2    0    0  0.67176065383E+02 -0.43345825350E+02 -0.79475329495E+02  0.13905266776E+03  0.81411498438E+02 0.  0.
         25    2    1    2    0    0 -0.12811444566E+03  0.14787744037E+03  0.13656843974E+03  0.26936475012E+03  0.12500152526E+03 0.  0.
         24    2    1    2    0    0  0.57068974965E+01 -0.32312528669E+02  0.11800323584E+03  0.14544299200E+03  0.78436165542E+02 0.  0.
        -11    1    3    3    0    0  0.82811470805E+02 -0.19027462828E+02 -0.55448270240E+02  0.10146080382E+03  0.00000000000E+00 0.  1.
         12    1    3    3    0    0 -0.15635405422E+02 -0.24318362522E+02 -0.24027059255E+02  0.37591863946E+02  0.00000000000E+00 0. -1.
        -13    1    5    5    0    0 -0.54406855068E+01 -0.57222760328E+02  0.85113088203E+02  0.10270483505E+03  0.00000000000E+00 0.  1.
         14    1    5    5    0    0  0.11147583003E+02  0.24910231660E+02  0.32890147635E+02  0.42738156951E+02  0.00000000000E+00 0. -1.
          5    1    4    4  502    0 -0.13770662593E+03  0.16216646665E+03  0.13364907007E+03  0.25128716971E+03  0.47000000000E+01 0.  1.
         -5    1    4    4    0  502  0.95921802712E+01 -0.14289026275E+02  0.29193696694E+01  0.18077580411E+02  0.47000000000E+01 0.  1.
          1    1    1    2  503    0 -0.84297591778E+01 -0.21757856100E+02  0.13274760057E+04  0.13276810651E+04  0.00000000000E+00 0. -1.
         -2    1    1    2    0  501  0.63661241962E+02 -0.50461230256E+02 -0.24991435791E+03  0.26278560801E+03  0.00000000000E+00 0.  1.
<mgrwt>
<rscale>  0 0.43569863E+02</rscale>
<asrwt>0</asrwt>
<pdfrwt beam="1">  1        2 0.24977831E+00 0.23333777E+02</pdfrwt>
<pdfrwt beam="2">  1       -1 0.65563904E-01 0.81355581E+02</pdfrwt>
<totfact> 0.42467804E+01</totfact>
</mgrwt>
</event>
<event>
13    1  0.1595792E-008  0.1132557E+03  0.7546771E-02  0.1350353E+00
          2   -1    0    0  503    0  0.00000000000E+00  0.00000000000E+00  0.67234807069E+03  0.67234807069E+03  0.00000000000E+00 0. -1.
         -1   -1    0    0    0  501 -0.00000000000E+00 -0.00000000000E+00 -0.15475865814E+04  0.15475865814E+04  0.00000000000E+00 0.  1.
         24    2    1    2    0    0  0.10551333853E+03  0.10428308589E+03 -0.67106783771E+03  0.69159901402E+03  0.77260124101E+02 0.  0.
         25    2    1    2    0    0 -0.11353855338E+03  0.27932190176E+03  0.14076389639E+03  0.35546023503E+03  0.12500310498E+03 0.  0.
         24    2    1    2    0    0 -0.26469434750E+02 -0.25687775148E+03  0.14896453412E+03  0.30895110329E+03  0.81077380405E+02 0.  0.
        -11    1    5    5    0    0 -0.44123881775E+01 -0.24282125609E+03  0.14395577368E+03  0.28232055603E+03  0.00000000000E+00 0.  1.
         12    1    5    5    0    0 -0.22057046572E+02 -0.14056495393E+02  0.50087604370E+01  0.26630547259E+02  0.00000000000E+00 0. -1.
        -11    1    3    3    0    0  0.35776673308E+02  0.62825802996E+02 -0.18176311572E+03  0.19561411532E+03  0.00000000000E+00 0.  1.
         12    1    3    3    0    0  0.69736665218E+02  0.41457282895E+02 -0.48930472199E+03  0.49598489870E+03  0.00000000000E+00 0. -1.
          5    1    4    4  502    0 -0.83078416209E+02  0.26170899687E+03  0.15710412117E+03  0.31638175860E+03  0.47000000000E+01 0.  1.
         -5    1    4    4    0  502 -0.30460137167E+02  0.17612904892E+02 -0.16340224776E+02  0.39078476438E+02  0.47000000000E+01 0.  1.
          1    1    1    2  503    0 -0.31533532782E+02 -0.34828426745E+02  0.17721481567E+03  0.18333704997E+03  0.00000000000E+00 0. -1.
         -2    1    1    2    0  501  0.66028182382E+02 -0.91898809427E+02 -0.67111391913E+03  0.68058724973E+03  0.00000000000E+00 0.  1.
<mgrwt>
<rscale>  0 0.72945657E+02</rscale>
<asrwt>0</asrwt>
<pdfrwt beam="1">  1        2 0.98874717E-01 0.46982795E+02</pdfrwt>
<pdfrwt beam="2">  1       -1 0.22758626E+00 0.11325569E+03</pdfrwt>
<totfact> 0.67259623E+00</totfact>
</mgrwt>
</event>
<event>
13    1  0.1595792E-008  0.1254922E+03  0.7546771E-02  0.1275801E+00
          2   -1    0    0  503    0  0.00000000000E+00  0.00000000000E+00  0.10491083146E+04  0.10491083146E+04  0.00000000000E+00 0. -1.
          2   -1    0    0  502    0 -0.00000000000E+00 -0.00000000000E+00 -0.13089251798E+04  0.13089251798E+04  0.00000000000E+00 0. -1.
         24    2    1    2    0    0 -0.28788593991E+01 -0.35616851017E+02 -0.13609464820E+03  0.16148848587E+03  0.79246008677E+02 0.  0.
         25    2    1    2    0    0  0.43338686924E+02 -0.16010788682E+03  0.36231125203E+03  0.41761932871E+03  0.12499473252E+03 0.  0.
         24    2    1    2    0    0 -0.48733390349E+01 -0.76949499181E+02  0.29011375722E+03  0.31085638189E+03  0.80750994907E+02 0.  0.
        -13    1    3    3    0    0 -0.39481212419E+02 -0.90033364645E+01 -0.77610621185E+02  0.87539903600E+02  0.00000000000E+00 0.  1.
         14    1    3    3    0    0  0.36602353020E+02 -0.26613514553E+02 -0.58484027013E+02  0.73948582265E+02  0.00000000000E+00 0. -1.
        -13    1    5    5    0    0 -0.27297360827E+02  0.13911011651E+01  0.46072372914E+02  0.53569997354E+02  0.00000000000E+00 0.  1.
         14    1    5    5    0    0  0.22424021792E+02 -0.78340600346E+02  0.24404138430E+03  0.25728638454E+03  0.00000000000E+00 0. -1.
          5    1    4    4  501    0 -0.26307137090E+02  0.49749147429E+01  0.33603964707E+02  0.43221888930E+02  0.47000000000E+01 0.  1.
         -5    1    4    4    0  501  0.69645824015E+02 -0.16508280157E+03  0.32870728732E+03  0.37439743978E+03  0.47000000000E+01 0.  1.
          1    1    1    2  502    0  0.25462164455E+02  0.21617668435E+03 -0.11063454577E+04  0.11275552990E+04  0.00000000000E+00 0. -1.
          1    1    1    2  503    0 -0.61048652945E+02  0.56497552672E+02  0.33019823132E+03  0.34051399891E+03  0.00000000000E+00 0. -1.
<mgrwt>
<rscale>  0 0.10216868E+03</rscale>
<asrwt>0</asrwt>
<pdfrwt beam="1">  1        2 0.15428063E+00 0.83179994E+02</pdfrwt>
<pdfrwt beam="2">  1        2 0.19248900E+00 0.12549217E+03</pdfrwt>
<totfact> 0.85258620E+01</totfact>
</mgrwt>
</event>
<event>
13    1  0.1595792E-008  0.5578827E+02  0.7546771E-02  0.1618558E+00
          2   -1    0    0  502    0  0.00000000000E+00  0.00000000000E+00  0.30765092019E+04  0.30765092019E+04  0.00000000000E+00 0. -1.
          2   -1    0    0  503    0 -0.00000000000E+00 -0.00000000000E+00 -0.24993247601E+04  0.24993247601E+04  0.00000000000E+00 0. -1.
         24    2    1    2    0    0 -0.56552864071E+03 -0.28745136532E+03 -0.53101630393E+03  0.83124560360E+03  0.80870313323E+02 0.  0.
         25    2    1    2    0    0 -0.97286089128E+03  0.59534377323E+03  0.71991099937E+03  0.13545441254E+04  0.12500167413E+03 0.  0.
         24    2    1    2    0    0  0.14774933785E+04 -0.28076604926E+03  0.11659207623E+04  0.19056186531E+04  0.10097013899E+03 0.  0.
        -11    1    5    5    0    0  0.60364284410E+03 -0.73579161219E+02  0.50713278343E+03  0.79182209885E+03  0.00000000000E+00 0.  1.
         12    1    5    5    0    0  0.87385053443E+03 -0.20718688804E+03  0.65878797891E+03  0.11137965542E+04  0.00000000000E+00 0. -1.
        -11    1    3    3    0    0 -0.33011727276E+03 -0.12560954642E+03 -0.31200352401E+03  0.47127632120E+03  0.00000000000E+00 0.  1.
         12    1    3    3    0    0 -0.23541136795E+03 -0.16184181890E+03 -0.21901277992E+03  0.35996928240E+03  0.00000000000E+00 0. -1.
          5    1    4    4  501    0 -0.67486585205E+03  0.37795106464E+03  0.54540963561E+03  0.94645902507E+03  0.47000000000E+01 0.  1.
         -5    1    4    4    0  501 -0.29799503923E+03  0.21739270859E+03  0.17450136375E+03  0.40808510033E+03  0.47000000000E+01 0.  1.
          1    1    1    2  502    0  0.53789396070E+02 -0.14738296767E+02  0.35115138874E+03  0.35555282918E+03  0.00000000000E+00 0. -1.
          1    1    1    2  503    0  0.71067573929E+01 -0.12388061886E+02 -0.11287824047E+04  0.11288727507E+04  0.00000000000E+00 0. -1.
<mgrwt>
<rscale>  0 0.28226892E+02</rscale>
<asrwt>0</asrwt>
<pdfrwt beam="1">  1        2 0.45242783E+00 0.55788270E+02</pdfrwt>
<pdfrwt beam="2">  1        2 0.36754776E+00 0.14281809E+02</pdfrwt>
<totfact> 0.31502710E+00</totfact>
</mgrwt>
</event>
<event>
13    1  0.1595792E-008  0.1149884E+03  0.7546771E-02  0.1340666E+00
          2   -1    0    0  503    0  0.00000000000E+00  0.00000000000E+00  0.16714799936E+04  0.16714799936E+04  0.00000000000E+00 0. -1.
         -1   -1    0    0    0  501 -0.00000000000E+00 -0.00000000000E+00 -0.27232275074E+03  0.27232275074E+03  0.00000000000E+00 0.  1.
         24    2    1    2    0    0 -0.23714889252E+02 -0.10869459925E+02 -0.66518554611E+02  0.10853184432E+03  0.81693953221E+02 0.  0.
         25    2    1    2    0    0 -0.12427053309E+03 -0.54117525126E+02  0.98272115412E+02  0.20893547964E+03  0.12499901625E+03 0.  0.
         24    2    1    2    0    0 -0.46409337199E+01  0.19484948422E+02  0.11050887889E+03  0.13794034625E+03  0.80088234653E+02 0.  0.
        -11    1    5    5    0    0 -0.24358604496E+01 -0.29622172235E+02  0.62606568401E+02  0.69303599553E+02  0.00000000000E+00 0.  1.
         12    1    5    5    0    0 -0.22050732704E+01  0.49107120656E+02  0.47902310490E+02  0.68636746700E+02  0.00000000000E+00 0. -1.
        -13    1    3    3    0    0  0.14851198954E+02 -0.22868131584E+02  0.37086671818E+01  0.27518425914E+02  0.00000000000E+00 0.  1.
         14    1    3    3    0    0 -0.38566088206E+02  0.11998671659E+02 -0.70227221792E+02  0.81013418406E+02  0.00000000000E+00 0. -1.
          5    1    4    4  502    0 -0.80796043636E+02 -0.92590020483E+02  0.84131641867E+02  0.14900045545E+03  0.47000000000E+01 0. -1.
         -5    1    4    4    0  502 -0.43474489457E+02  0.38472495358E+02  0.14140473545E+02  0.59935024190E+02  0.47000000000E+01 0. -1.
          1    1    1    2  503    0  0.11347871618E+03  0.13933256239E+02  0.13646768453E+04  0.13694577200E+04  0.00000000000E+00 0. -1.
         -2    1    1    2    0  501  0.39147639886E+02  0.31568780390E+02 -0.10778204215E+03  0.11893735415E+03  0.00000000000E+00 0.  1.
<mgrwt>
<rscale>  0 0.76044812E+02</rscale>
<asrwt>0</asrwt>
<pdfrwt beam="1">  1        2 0.24580588E+00 0.11498839E+03</pdfrwt>
<pdfrwt beam="2">  1       -1 0.40047464E-01 0.50290413E+02</pdfrwt>
<totfact> 0.91654331E+01</totfact>
</mgrwt>
</event>
<event>
13    1  0.1595792E-008  0.3972694E+02  0.7546771E-02  0.1535916E+00
         -3   -1    0    0    0  501 -0.00000000000E+00  0.00000000000E+00  0.34015890901E+03  0.34015890901E+03  0.00000000000E+00 0.  1.
          2   -1    0    0  503    0  0.00000000000E+00 -0.00000000000E+00 -0.36140151352E+03  0.36140151352E+03  0.00000000000E+00 0. -1.
         24    2    1    2    0    0  0.56163955823E+01  0.54077950521E+01  0.40149622494E+02  0.90283733947E+02  0.80488336312E+02 0.  0.
         25    2    1    2    0    0 -0.57793974632E+02  0.58646187586E+02  0.82719477608E+02  0.17101558241E+03  0.12499719449E+03 0.  0.
         24    2    1    2    0    0  0.54235343546E+02 -0.52977645658E+02  0.10185883442E+02  0.11034635974E+03  0.79526495317E+02 0.  0.
        -11    1    5    5    0    0  0.61426707817E+02 -0.86517468468E+01  0.18381588815E+02  0.64699118727E+02  0.00000000000E+00 0.  1.
         12    1    5    5    0    0 -0.71913642713E+01 -0.44325898811E+02 -0.81957053731E+01  0.45647241012E+02  0.00000000000E+00 0. -1.
        -11    1    3    3    0    0 -0.13538829782E+02 -0.34240082714E+02  0.19084174353E+02  0.41471543098E+02  0.00000000000E+00 0.  1.
         12    1    3    3    0    0  0.19155225364E+02  0.39647877767E+02  0.21065448141E+02  0.48812190850E+02  0.00000000000E+00 0. -1.
          5    1    4    4  502    0 -0.75848972858E+02 -0.11178224977E+02  0.50208847693E+02  0.91766212649E+02  0.47000000000E+01 0. -1.
         -5    1    4    4    0  502  0.18054998226E+02  0.69824412563E+02  0.32510629915E+02  0.79249369765E+02  0.47000000000E+01 0. -1.
          1    1    1    2  503    0  0.30462424489E+02  0.13893514484E+02 -0.23607355892E+03  0.23843597520E+03  0.00000000000E+00 0. -1.
         -4    1    1    2    0  501 -0.32520188985E+02 -0.24969851464E+02  0.81775970864E+02  0.91478771223E+02  0.00000000000E+00 0.  1.
<mgrwt>
<rscale>  0 0.36470598E+02</rscale>
<asrwt>0</asrwt>
<pdfrwt beam="2">  1        2 0.53147281E-01 0.33481175E+02</pdfrwt>
<pdfrwt beam="1">  1       -3 0.50023369E-01 0.39726938E+02</pdfrwt>
<totfact> 0.20941983E+02</totfact>
</mgrwt>
</event>
<event>
13    1  0.1595792E-008  0.9113224E+02  0.7546771E-02  0.1463053E+00
          2   -1    0    0  502    0  0.00000000000E+00  0.00000000000E+00  0.18360470091E+04  0.18360470091E+04  0.00000000000E+00 0. -1.
          2   -1    0    0  503    0 -0.00000000000E+00 -0.00000000000E+00 -0.16707118882E+04  0.16707118882E+04  0.00000000000E+00 0. -1.
         24    2    1    2    0    0  0.77057622776E+02 -0.30757455202E+02 -0.42117035210E+02  0.12399505220E+03  0.81957489205E+02 0.  0.
         25    2    1    2    0    0 -0.60371668850E+02  0.73708247017E+02  0.57397472842E+03  0.59510473156E+03  0.12500003430E+03 0.  0.
         24    2    1    2    0    0  0.22197699628E+02  0.12698594244E+02  0.25737228952E+03  0.27112480860E+03  0.81327573790E+02 0.  0.
        -11    1    5    5    0    0  0.51729396621E+02  0.11752338997E+02  0.19534463490E+03  0.20241930326E+03  0.00000000000E+00 0.  1.
         12    1    5    5    0    0 -0.29531696992E+02  0.94625524658E+00  0.62027654621E+02  0.68705505340E+02  0.00000000000E+00 0. -1.
        -13    1    3    3    0    0  0.75054685831E+02  0.96607824403E+01 -0.32753633715E+02  0.82458093018E+02  0.00000000000E+00 0.  1.
         14    1    3    3    0    0  0.20029369442E+01 -0.40418237642E+02 -0.93634014952E+01  0.41536959182E+02  0.00000000000E+00 0. -1.
          5    1    4    4  501    0 -0.35176168344E+02  0.31717527250E+02  0.51961205099E+03  0.52178744512E+03  0.47000000000E+01 0. -1.
         -5    1    4    4    0  501 -0.25195500505E+02  0.41990719766E+02  0.54362677434E+02  0.73317286434E+02  0.47000000000E+01 0. -1.
          1    1    1    2  502    0  0.18888291379E+02  0.14960622681E+02  0.94484079993E+03  0.94514799105E+03  0.00000000000E+00 0. -1.
          1    1    1    2  503    0 -0.57771944934E+02 -0.70610008740E+02 -0.15687356618E+04  0.15713863139E+04  0.00000000000E+00 0. -1.
<mgrwt>
<rscale>  0 0.46860077E+02</rscale>
<asrwt>0</asrwt>
<pdfrwt beam="1">  1        2 0.27000691E+00 0.24095389E+02</pdfrwt>
<pdfrwt beam="2">  1        2 0.24569292E+00 0.91132241E+02</pdfrwt>
<totfact> 0.26409884E+01</totfact>
</mgrwt>
</event>
<event>
13    1  0.1595792E-008  0.8460585E+02  0.7546771E-02  0.1324428E+00
          2   -1    0    0  503    0  0.00000000000E+00  0.00000000000E+00  0.22991473232E+04  0.22991473232E+04  0.00000000000E+00 0. -1.
          2   -1    0    0  502    0 -0.00000000000E+00 -0.00000000000E+00 -0.76735901529E+03  0.76735901529E+03  0.00000000000E+00 0. -1.
         24    2    1    2    0    0  0.33955769979E+02 -0.92520275922E+00  0.63059694271E+02  0.10762385170E+03  0.80327567480E+02 0.  0.
         25    2    1    2    0    0 -0.73755298003E+02  0.43303106530E+00  0.14433386168E+03  0.20468888283E+03  0.12500097450E+03 0.  0.
         24    2    1    2    0    0  0.54123582549E+02 -0.86456170070E+02  0.13093577961E+04  0.13157705702E+04  0.80189298174E+02 0.  0.
        -11    1    5    5    0    0  0.36992464240E+02 -0.10054543641E+03  0.10413702435E+04  0.10468666635E+04  0.00000000000E+00 0.  1.
         12    1    5    5    0    0  0.17131118309E+02  0.14089266343E+02  0.26798755261E+03  0.26890390662E+03  0.00000000000E+00 0. -1.
        -11    1    3    3    0    0  0.49443991397E+02  0.23772555805E+02  0.54284512951E+02  0.77179343357E+02  0.00000000000E+00 0.  1.
         12    1    3    3    0    0 -0.15488221418E+02 -0.24697758564E+02  0.87751813208E+01  0.30444508339E+02  0.00000000000E+00 0. -1.
          5    1    4    4  501    0 -0.43872711395E+02  0.11998865983E+02 -0.10156536554E+02  0.46840504105E+02  0.47000000000E+01 0. -1.
         -5    1    4    4    0  501 -0.29882586607E+02 -0.11565834918E+02  0.15449039823E+03  0.15784837872E+03  0.47000000000E+01 0. -1.
          1    1    1    2  502    0 -0.74274856461E+02  0.26321555809E+02 -0.70699567072E+03  0.71137364094E+03  0.00000000000E+00 0. -1.
          1    1    1    2  503    0  0.59950801937E+02  0.60626785955E+02  0.72203262656E+03  0.72704939286E+03  0.00000000000E+00 0. -1.
<mgrwt>
<rscale>  0 0.81651795E+02</rscale>
<asrwt>0</asrwt>
<pdfrwt beam="1">  1        2 0.33810990E+00 0.84605853E+02</pdfrwt>
<pdfrwt beam="2">  1        2 0.11284691E+00 0.78800879E+02</pdfrwt>
<totfact> 0.43005647E+01</totfact>
</mgrwt>
</event>
<event>
13    1  0.1595792E-008  0.1339513E+03  0.7546771E-02  0.1239122E+00
          2   -1    0    0  502    0  0.00000000000E+00  0.00000000000E+00  0.21721632397E+04  0.21721632397E+04  0.00000000000E+00 0. -1.
          2   -1    0    0  503    0 -0.00000000000E+00 -0.00000000000E+00 -0.22197777174E+04  0.22197777174E+04  0.00000000000E+00 0. -1.
         24    2    1    2    0    0 -0.14095497539E+03 -0.62551303612E+03 -0.53730284023E+03  0.84050549845E+03  0.81365148370E+02 0.  0.
         25    2    1    2    0    0  0.82377678414E+02  0.68752604790E+03  0.38994419879E+03  0.80446301196E+03  0.12500444396E+03 0.  0.
         24    2    1    2    0    0  0.13319135656E+03  0.13590983850E+03  0.33569859346E+03  0.39594129796E+03  0.88682264945E+02 0.  0.
        -13    1    3    3    0    0 -0.56106152255E+02 -0.31388128221E+03 -0.31649382441E+03  0.44926350902E+03  0.00000000000E+00 0.  1.
         14    1    3    3    0    0 -0.84848823131E+02 -0.31163175391E+03 -0.22080901581E+03  0.39124198944E+03  0.00000000000E+00 0. -1.
        -13    1    5    5    0    0  0.12050089127E+03  0.92036330893E+02  0.30587237614E+03  0.34139282577E+03  0.00000000000E+00 0.  1.
         14    1    5    5    0    0  0.12690465285E+02  0.43873507605E+02  0.29826217327E+02  0.54548472194E+02  0.00000000000E+00 0. -1.
          5    1    4    4  501    0 -0.24432554042E+02  0.15693665071E+03  0.55978925594E+02  0.16846896492E+03  0.47000000000E+01 0. -1.
         -5    1    4    4    0  501  0.10681023246E+03  0.53058939719E+03  0.33396527319E+03  0.63599404704E+03  0.47000000000E+01 0. -1.
          1    1    1    2  502    0  0.16341288033E+02 -0.13270415307E+03  0.10508734537E+04  0.10593452910E+04  0.00000000000E+00 0. -1.
          1    1    1    2  503    0 -0.90955347617E+02 -0.65218697210E+02 -0.12868278833E+04  0.12916858577E+04  0.00000000000E+00 0. -1.
<mgrwt>
<rscale>  0 0.12244179E+03</rscale>
<asrwt>0</asrwt>
<pdfrwt beam="1">  1        2 0.31943577E+00 0.13395131E+03</pdfrwt>
<pdfrwt beam="2">  1        2 0.32643790E+00 0.11192119E+03</pdfrwt>
<totfact> 0.80803925E+00</totfact>
</mgrwt>
</event>
<event>
13    1  0.1595792E-008  0.1085564E+03  0.7546771E-02  0.1289774E+00
          2   -1    0    0  502    0  0.00000000000E+00  0.00000000000E+00  0.13023955145E+04  0.13023955145E+04  0.00000000000E+00 0. -1.
          2   -1    0    0  503    0 -0.00000000000E+00 -0.00000000000E+00 -0.12314100092E+04  0.12314100092E+04  0.00000000000E+00 0. -1.
         24    2    1    2    0    0  0.35896520548E+02  0.17327946731E+03 -0.11455491387E+03  0.22556226547E+03  0.80256920764E+02 0.  0.
         25    2    1    2    0    0 -0.22493707588E+03 -0.19165208791E+03  0.45914843332E+02  0.32411723712E+03  0.12496639413E+03 0.  0.
         24    2    1    2    0    0  0.39073011773E+02 -0.10019971208E+03  0.11655836271E+03  0.17777650169E+03  0.80324031804E+02 0.  0.
        -13    1    3    3    0    0  0.50419814180E+02  0.17077477387E+03 -0.11264485151E+03  0.21070131377E+03  0.00000000000E+00 0.  1.
         14    1    3    3    0    0 -0.14523293632E+02  0.25046934438E+01 -0.19100623629E+01  0.14860951699E+02  0.00000000000E+00 0. -1.
        -13    1    5    5    0    0  0.60144945029E+02 -0.70454279214E+02  0.59598721190E+02  0.11015093027E+03  0.00000000000E+00 0.  1.
         14    1    5    5    0    0 -0.21071933256E+02 -0.29745432865E+02  0.56959641519E+02  0.67625571417E+02  0.00000000000E+00 0. -1.
          5    1    4    4  501    0 -0.19107505188E+03 -0.88634960370E+02  0.14797840786E+02  0.21120345106E+03  0.47000000000E+01 0. -1.
         -5    1    4    4    0  501 -0.33862023998E+02 -0.10301712754E+03  0.31117002546E+02  0.11291378606E+03  0.47000000000E+01 0. -1.
          1    1    1    2  502    0  0.78729301607E+02  0.73621123120E+02  0.90952941407E+03  0.91589416842E+03  0.00000000000E+00 0. -1.
          1    1    1    2  503    0  0.71238241948E+02  0.44951209553E+02 -0.88646220094E+03  0.89045535096E+03  0.00000000000E+00 0. -1.
<mgrwt>
<rscale>  0 0.95625433E+02</rscale>
<asrwt>0</asrwt>
<pdfrwt beam="1">  1        2 0.19152875E+00 0.10855639E+03</pdfrwt>
<pdfrwt beam="2">  1        2 0.18108971E+00 0.84234781E+02</pdfrwt>
<totfact> 0.69171507E+01</totfact>
</mgrwt>
</event>
<event>
13    1  0.1595792E-008  0.2306171E+02  0.7546771E-02  0.1708896E+00
          2   -1    0    0  503    0  0.00000000000E+00  0.00000000000E+00  0.21287328348E+03  0.21287328348E+03  0.00000000000E+00 0. -1.
          2   -1    0    0  502    0 -0.00000000000E+00 -0.00000000000E+00 -0.34480394659E+04  0.34480394659E+04  0.00000000000E+00 0. -1.
         24    2    1    2    0    0  0.19819006315E+03 -0.42328952213E+02 -0.12703390156E+04  0.12888708069E+04  0.79722651069E+02 0.  0.
         25    2    1    2    0    0 -0.17097983881E+03  0.49428921561E+02 -0.92887657823E+03  0.95399808134E+03  0.12499327199E+03 0.  0.
         24    2    1    2    0    0 -0.39782385053E+02  0.66448561329E+01 -0.60815935350E+02  0.10856089788E+03  0.80374736591E+02 0.  0.
        -11    1    5    5    0    0 -0.16210117352E+02  0.40731802519E+02 -0.13963158800E+02  0.46008884410E+02  0.00000000000E+00 0.  1.
         12    1    5    5    0    0 -0.23572267700E+02 -0.34086946386E+02 -0.46852776549E+02  0.62552013467E+02  0.00000000000E+00 0. -1.
        -13    1    3    3    0    0 -0.51950148710E+01 -0.15867707469E+01 -0.84357462441E+01  0.10033336215E+02  0.00000000000E+00 0.  1.
         14    1    3    3    0    0  0.20338507802E+03 -0.40742181466E+02 -0.12619032694E+04  0.12788374707E+04  0.00000000000E+00 0. -1.
          5    1    4    4  501    0 -0.41762656659E+02 -0.21963744823E+01 -0.55802184998E+02  0.69892184132E+02  0.47000000000E+01 0. -1.
         -5    1    4    4    0  501 -0.12921718215E+03  0.51625296043E+02 -0.87307439323E+03  0.88410589720E+03  0.47000000000E+01 0. -1.
          1    1    1    2  502    0  0.22635074581E+02  0.45916938675E+01 -0.11415372968E+04  0.11417709184E+04  0.00000000000E+00 0. -1.
          1    1    1    2  503    0 -0.10062913874E+02 -0.18336519349E+02  0.16640264356E+03  0.16771204477E+03  0.00000000000E+00 0. -1.
<mgrwt>
<rscale>  0 0.21962805E+02</rscale>
<asrwt>0</asrwt>
<pdfrwt beam="1">  1        2 0.31304896E-01 0.20916266E+02</pdfrwt>
<pdfrwt beam="2">  1        2 0.50706460E+00 0.23061707E+02</pdfrwt>
<totfact> 0.52881492E+01</totfact>
</mgrwt>
</event>
<event>
13    1  0.1595792E-008  0.8253279E+02  0.7546771E-02  0.1503478E+00
          2   -1    0    0  503    0  0.00000000000E+00  0.00000000000E+00  0.13386359450E+04  0.13386359450E+04  0.00000000000E+00 0. -1.
          2   -1    0    0  502    0 -0.00000000000E+00 -0.00000000000E+00 -0.19660738317E+04  0.19660738317E+04  0.00000000000E+00 0. -1.
         24    2    1    2    0    0  0.31136216641E+02 -0.14765929568E+03 -0.44663023056E+03  0.47706570137E+03  0.73077965142E+02 0.  0.
         25    2    1    2    0    0  0.14348583468E+03  0.15183240784E+03 -0.39025481072E+03  0.45996513020E+03  0.12501135505E+03 0.  0.
         24    2    1    2    0    0 -0.25191511463E+03 -0.54592126115E+02  0.20719345217E+03  0.34455966430E+03  0.96699071510E+02 0.  0.
        -11    1    5    5    0    0 -0.62599174524E+02  0.22021729273E+02  0.80079516229E+02  0.10400164485E+03  0.00000000000E+00 0.  1.
         12    1    5    5    0    0 -0.18931594010E+03 -0.76613855388E+02  0.12711393594E+03  0.24055801946E+03  0.00000000000E+00 0. -1.
        -11    1    3    3    0    0  0.87147206974E+01 -0.51594466688E+02 -0.68033018053E+02  0.85827891126E+02  0.00000000000E+00 0.  1.
         12    1    3    3    0    0  0.22421495944E+02 -0.96064828992E+02 -0.37859721250E+03  0.39123781024E+03  0.00000000000E+00 0. -1.
          5    1    4    4  501    0 -0.16152327957E+02  0.11063797603E+02 -0.65764873580E+01  0.21181253547E+02  0.47000000000E+01 0. -1.
         -5    1    4    4    0  501  0.15963816264E+03  0.14076861023E+03 -0.38367832336E+03  0.43878387666E+03  0.47000000000E+01 0. -1.
          1    1    1    2  502    0  0.58731935878E+02  0.57926466430E+02 -0.10086498318E+04  0.10120174894E+04  0.00000000000E+00 0. -1.
          1    1    1    2  503    0  0.18561127423E+02 -0.75074524708E+01  0.10109035341E+04  0.10111017914E+04  0.00000000000E+00 0. -1.
<mgrwt>
<rscale>  0 0.40650522E+02</rscale>
<asrwt>0</asrwt>
<pdfrwt beam="1">  1        2 0.19685823E+00 0.20021920E+02</pdfrwt>
<pdfrwt beam="2">  1        2 0.28912850E+00 0.82532791E+02</pdfrwt>
<totfact> 0.32828112E+01</totfact>
</mgrwt>
</event>
<event>
13    1  0.1595792E-008  0.8117892E+02  0.7546771E-02  0.1384039E+00
          2   -1    0    0  503    0  0.00000000000E+00  0.00000000000E+00  0.28136616144E+03  0.28136616144E+03  0.00000000000E+00 0. -1.
          2   -1    0    0  502    0 -0.00000000000E+00 -0.00000000000E+00 -0.26353345474E+04  0.26353345474E+04  0.00000000000E+00 0. -1.
         24    2    1    2    0    0  0.10955501956E+03  0.17738783411E+02 -0.24372772518E+03  0.27966842361E+03  0.80586949289E+02 0.  0.
         25    2    1    2    0    0 -0.20329155612E+02 -0.30097594478E+02 -0.13908998391E+03  0.19049863071E+03  0.12499825966E+03 0.  0.
         24    2    1    2    0    0 -0.18475210526E+02 -0.40143016251E+01 -0.20717468033E+02  0.83688758124E+02  0.78848885428E+02 0.  0.
        -13    1    5    5    0    0 -0.27391608738E+02 -0.35812757588E+02 -0.22943138691E+02  0.50588945910E+02  0.00000000000E+00 0.  1.
         14    1    5    5    0    0  0.89163982129E+01  0.31798455963E+02  0.22256706580E+01  0.33099812214E+02  0.00000000000E+00 0. -1.
        -13    1    3    3    0    0  0.87346967376E+02 -0.16603233094E+02 -0.11994749575E+03  0.14930693820E+03  0.00000000000E+00 0.  1.
         14    1    3    3    0    0  0.22208052182E+02  0.34342016505E+02 -0.12378022944E+03  0.13036148541E+03  0.00000000000E+00 0. -1.
          5    1    4    4  501    0 -0.34297986447E+02 -0.32295963333E+02 -0.15884685983E+03  0.16575221265E+03  0.47000000000E+01 0. -1.
         -5    1    4    4    0  501  0.13968830835E+02  0.21983688549E+01  0.19756875920E+02  0.24746418057E+02  0.47000000000E+01 0. -1.
          1    1    1    2  502    0 -0.74414454779E+02 -0.33027971786E+02 -0.21528834282E+04  0.21544222923E+04  0.00000000000E+00 0. -1.
          1    1    1    2  503    0  0.36638013587E+01  0.49401084478E+02  0.20245021937E+03  0.20842260413E+03  0.00000000000E+00 0. -1.
<mgrwt>
<rscale>  0 0.63414040E+02</rscale>
<asrwt>0</asrwt>
<pdfrwt beam="1">  1        2 0.41377376E-01 0.49536760E+02</pdfrwt>
<pdfrwt beam="2">  1        2 0.38754921E+00 0.81178917E+02</pdfrwt>
<totfact> 0.86268901E+01</totfact>
</mgrwt>
</event>
<event>
13    1  0.1595792E-008  0.4000359E+02  0.7546771E-02  0.1551461E+00
          2   -1    0    0  503    0  0.00000000000E+00  0.00000000000E+00  0.79860824786E+03  0.79860824786E+03  0.00000000000E+00 0. -1.
         -3   -1    0    0    0  501 -0.00000000000E+00 -0.00000000000E+00 -0.19808252848E+03  0.19808252848E+03  0.00000000000E+00 0.  1.
         24    2    1    2    0    0  0.62391412841E+02 -0.33267396868E+01 -0.58292397305E+02  0.12394434586E+03  0.89779962656E+02 0.  0.
         25    2    1    2    0    0 -0.67791469664E+02  0.14293769457E+03  0.12386208803E+03  0.23662783964E+03  0.12499619895E+03 0.  0.
         24    2    1    2    0    0 -0.28478024354E+02 -0.98012499905E+02  0.40504211311E+03  0.42543826243E+03  0.80753660790E+02 0.  0.
        -11    1    5    5    0    0  0.21925357942E+02 -0.28573578576E+02  0.19918341376E+03  0.20241344577E+03  0.00000000000E+00 0.  1.
         12    1    5    5    0    0 -0.50403382296E+02 -0.69438921329E+02  0.20585869936E+03  0.22302481665E+03  0.00000000000E+00 0. -1.
        -13    1    3    3    0    0  0.21408828881E+02  0.41323346823E+02 -0.37832401675E+02  0.59977058640E+02  0.00000000000E+00 0.  1.
         14    1    3    3    0    0  0.40982583960E+02 -0.44650086509E+02 -0.20459995630E+02  0.63967287222E+02  0.00000000000E+00 0. -1.
          5    1    4    4  502    0  0.49574356882E+01 -0.18042619947E+02  0.32237804563E+02  0.37569646607E+02  0.47000000000E+01 0.  1.
         -5    1    4    4    0  502 -0.72748905352E+02  0.16098031452E+03  0.91624283469E+02  0.19905819304E+03  0.47000000000E+01 0.  1.
          1    1    1    2  503    0 -0.42517182937E+01 -0.29762747012E+02  0.15866021518E+03  0.16148362796E+03  0.00000000000E+00 0. -1.
         -4    1    1    2    0  501  0.38129799470E+02 -0.11835707971E+02 -0.28746299644E+02  0.49196700439E+02  0.00000000000E+00 0.  1.
<mgrwt>
<rscale>  0 0.34680022E+02</rscale>
<asrwt>0</asrwt>
<pdfrwt beam="1">  1        2 0.11744239E+00 0.30064900E+02</pdfrwt>
<pdfrwt beam="2">  1       -3 0.29129784E-01 0.40003590E+02</pdfrwt>
<totfact> 0.25024486E+02</totfact>
</mgrwt>
</event>
<event>
13    1  0.1595792E-008  0.1290183E+03  0.7546771E-02  0.1453400E+00
          2   -1    0    0  503    0  0.00000000000E+00  0.00000000000E+00  0.37053511294E+03  0.37053511294E+03  0.00000000000E+00 0. -1.
         -1   -1    0    0    0  501 -0.00000000000E+00 -0.00000000000E+00 -0.40107934939E+03  0.40107934939E+03  0.00000000000E+00 0.  1.
         24    2    1    2    0    0  0.93361706334E+01 -0.25598475303E+02 -0.33191080028E+02  0.91149288432E+02  0.80399620449E+02 0.  0.
         25    2    1    2    0    0  0.42627212709E+02 -0.51958931274E+02 -0.98773485304E+02  0.17291068527E+03  0.12500037551E+03 0.  0.
         24    2    1    2    0    0  0.85169618924E+02  0.29008665153E+01 -0.23589290686E+02  0.11873040532E+03  0.79234938618E+02 0.  0.
        -11    1    3    3    0    0 -0.25357650042E+02 -0.72195988455E+00  0.12786521718E+02  0.28408216759E+02  0.00000000000E+00 0.  1.
         12    1    3    3    0    0  0.34693820676E+02 -0.24876515418E+02 -0.45977601747E+02  0.62741071674E+02  0.00000000000E+00 0. -1.
        -13    1    5    5    0    0  0.93089159336E+02  0.85363799026E+01 -0.28486702788E+00  0.93480171785E+02  0.00000000000E+00 0.  1.
         14    1    5    5    0    0 -0.79195404121E+01 -0.56355133873E+01 -0.23304423658E+02  0.25250233533E+02  0.00000000000E+00 0. -1.
          5    1    4    4  502    0  0.23297483630E+02 -0.93159455417E+02 -0.65337273680E+02  0.11624330608E+03  0.47000000000E+01 0.  1.
         -5    1    4    4    0  502  0.19329729080E+02  0.41200524143E+02 -0.33436211624E+02  0.56667379186E+02  0.47000000000E+01 0.  1.
          1    1    1    2  503    0 -0.12008339920E+03  0.68121258371E+02  0.23758061040E+03  0.27478186811E+03  0.00000000000E+00 0. -1.
         -2    1    1    2    0  501 -0.17049603065E+02  0.65352816899E+01 -0.11257099083E+03  0.11404221520E+03  0.00000000000E+00 0.  1.
<mgrwt>
<rscale>  0 0.48536301E+02</rscale>
<asrwt>0</asrwt>
<pdfrwt beam="1">  1        2 0.54490458E-01 0.12901829E+03</pdfrwt>
<pdfrwt beam="2">  1       -1 0.58982257E-01 0.18259213E+02</pdfrwt>
<totfact> 0.32445419E+02</totfact>
</mgrwt>
</event>
<event>
13    1  0.1595792E-008  0.2529398E+03  0.7546771E-02  0.1212816E+00
          2   -1    0    0  503    0  0.00000000000E+00  0.00000000000E+00  0.34468424236E+04  0.34468424236E+04  0.00000000000E+00 0. -1.
          2   -1    0    0  502    0 -0.00000000000E+00 -0.00000000000E+00 -0.13161338438E+04  0.13161338438E+04  0.00000000000E+00 0. -1.
         24    2    1    2    0    0 -0.35331748815E+02 -0.11601418422E+03 -0.36588384710E+03  0.39388476859E+03  0.81034547851E+02 0.  0.
         25    2    1    2    0    0 -0.68801557079E+02 -0.17896922570E+03 -0.20185673629E+03  0.30518056163E+03  0.12500158083E+03 0.  0.
         24    2    1    2    0    0  0.30893636461E+03  0.36828711719E+02  0.61765009215E+02  0.32715681918E+03  0.80116393970E+02 0.  0.
        -11    1    5    5    0    0  0.18429475265E+03  0.58118159554E+02  0.53146981511E+02  0.20041676069E+03  0.00000000000E+00 0.  1.
         12    1    5    5    0    0  0.12464161197E+03 -0.21289447835E+02  0.86180277043E+01  0.12674005848E+03  0.00000000000E+00 0. -1.
        -11    1    3    3    0    0 -0.34465549654E+02 -0.47687172936E+02 -0.26879868851E+03  0.27516299809E+03  0.00000000000E+00 0.  1.
         12    1    3    3    0    0 -0.86619916042E+00 -0.68327011280E+02 -0.97085158593E+02  0.11872177050E+03  0.00000000000E+00 0. -1.
          5    1    4    4  501    0 -0.27696533831E+02 -0.12284680169E+02  0.10188428293E+02  0.32309525285E+02  0.47000000000E+01 0. -1.
         -5    1    4    4    0  501 -0.41105023248E+02 -0.16668454553E+03 -0.21204516458E+03  0.27287103635E+03  0.47000000000E+01 0. -1.
          1    1    1    2  502    0 -0.57491120827E+02  0.52583895297E+02 -0.54222840809E+03  0.54779735446E+03  0.00000000000E+00 0. -1.
          1    1    1    2  503    0 -0.14731193789E+03  0.20557080290E+03  0.31789125621E+04  0.31889567635E+04  0.00000000000E+00 0. -1.
<mgrwt>
<rscale>  0 0.14038187E+03</rscale>
<asrwt>0</asrwt>
<pdfrwt beam="1">  1        2 0.50688859E+00 0.25293978E+03</pdfrwt>
<pdfrwt beam="2">  1        2 0.19354910E+00 0.77912098E+02</pdfrwt>
<totfact> 0.43909219E+00</totfact>
</mgrwt>
</event>
<event>
13    1  0.1595792E-008  0.5593821E+02  0.7546771E-02  0.1569918E+00
          2   -1    0    0  502    0  0.00000000000E+00  0.00000000000E+00  0.33672972791E+04  0.33672972791E+04  0.00000000000E+00 0. -1.
          2   -1    0    0  503    0 -0.00000000000E+00 -0.00000000000E+00 -0.34587252400E+03  0.34587252400E+03  0.00000000000E+00 0. -1.
         24    2    1    2    0    0 -0.17766099672E+03 -0.37833706506E+03  0.34612386792E+03  0.54609693621E+03  0.60973496201E+02 0.  0.
         25    2    1    2    0    0  0.22275732516E+03  0.18075945048E+03  0.14399438464E+03  0.34446153351E+03  0.12499824161E+03 0.  0.
         24    2    1    2    0    0 -0.69319078250E+02  0.16969023285E+03  0.72864409901E+03  0.75548975992E+03  0.79010408094E+02 0.  0.
        -11    1    5    5    0    0 -0.69937351365E+02  0.15044950939E+03  0.51693115511E+03  0.54290340496E+03  0.00000000000E+00 0.  1.
         12    1    5    5    0    0  0.61827311414E+00  0.19240723458E+02  0.21171294390E+03  0.21258635496E+03  0.00000000000E+00 0. -1.
        -11    1    3    3    0    0 -0.24669189288E+01 -0.15637439735E+02  0.30530572310E+02  0.34390857158E+02  0.00000000000E+00 0.  1.
         12    1    3    3    0    0 -0.17519407779E+03 -0.36269962533E+03  0.31559329561E+03  0.51170607905E+03  0.00000000000E+00 0. -1.
          5    1    4    4  501    0  0.45277249561E+02  0.11354721779E+03  0.44865144396E+02  0.13029954405E+03  0.47000000000E+01 0. -1.
         -5    1    4    4    0  501  0.17748007560E+03  0.67212232690E+02  0.99129240242E+02  0.21416198946E+03  0.47000000000E+01 0. -1.
          1    1    1    2  502    0 -0.11206794109E+02 -0.15502159633E+02  0.19289097538E+04  0.19290046002E+04  0.00000000000E+00 0. -1.
          1    1    1    2  503    0  0.35429543912E+02  0.43389541361E+02 -0.12624735023E+03  0.13811697333E+03  0.00000000000E+00 0. -1.
<mgrwt>
<rscale>  0 0.32711287E+02</rscale>
<asrwt>0</asrwt>
<pdfrwt beam="1">  1        2 0.49519076E+00 0.19128753E+02</pdfrwt>
<pdfrwt beam="2">  1        2 0.50863608E-01 0.55938214E+02</pdfrwt>
<totfact> 0.38123894E+01</totfact>
</mgrwt>
</event>
<event>
13    1  0.1595792E-008  0.1048665E+03  0.7546771E-02  0.1365641E+00
          2   -1    0    0  503    0  0.00000000000E+00  0.00000000000E+00  0.18321568418E+04  0.18321568418E+04  0.00000000000E+00 0. -1.
          2   -1    0    0  502    0 -0.00000000000E+00 -0.00000000000E+00 -0.64017288903E+03  0.64017288903E+03  0.00000000000E+00 0. -1.
         24    2    1    2    0    0  0.17047890506E+02  0.82825969621E+02 -0.25433147998E+03  0.28045530070E+03  0.82582698967E+02 0.  0.
         25    2    1    2    0    0 -0.94102176165E+02 -0.71817947849E+02  0.14443480121E+02  0.17275937338E+03  0.12499659908E+03 0.  0.
         24    2    1    2    0    0  0.28543366016E+02  0.39466505625E+02  0.10892970021E+03  0.14555167493E+03  0.83350354985E+02 0.  0.
        -11    1    3    3    0    0 -0.13450292371E+02 -0.11348414945E+02 -0.57516019055E+02  0.60148061769E+02  0.00000000000E+00 0.  1.
         12    1    3    3    0    0  0.30498182877E+02  0.94174384566E+02 -0.19681546092E+03  0.22030723893E+03  0.00000000000E+00 0. -1.
        -13    1    5    5    0    0 -0.11113377323E+02 -0.27739446704E+00 -0.94125929877E+01  0.14566434360E+02  0.00000000000E+00 0.  1.
         14    1    5    5    0    0  0.39656743339E+02  0.39743900092E+02  0.11834229320E+03  0.13098524057E+03  0.00000000000E+00 0. -1.
          5    1    4    4  501    0 -0.54386169126E+02  0.25322243800E+02  0.28834002693E+02  0.66727514075E+02  0.47000000000E+01 0. -1.
         -5    1    4    4    0  501 -0.39716007039E+02 -0.97140191649E+02 -0.14390522572E+02  0.10603185931E+03  0.47000000000E+01 0. -1.
          1    1    1    2  502    0 -0.31475014636E+02  0.31608367529E+02 -0.27143314088E+03  0.27507401806E+03  0.00000000000E+00 0. -1.
          1    1    1    2  503    0  0.79985934279E+02 -0.82082894926E+02  0.15943753933E+04  0.15984893638E+04  0.00000000000E+00 0. -1.
<mgrwt>
<rscale>  0 0.68394123E+02</rscale>
<asrwt>0</asrwt>
<pdfrwt beam="1">  1        2 0.26943483E+00 0.10486647E+03</pdfrwt>
<pdfrwt beam="2">  1        2 0.94143072E-01 0.44606787E+02</pdfrwt>
<totfact> 0.87933271E+01</totfact>
</mgrwt>
</event>
<event>
13    1  0.1595792E-008  0.8354137E+02  0.7546771E-02  0.1521586E+00
          4   -1    0    0  503    0 -0.00000000000E+00  0.00000000000E+00  0.10649573274E+04  0.10649573274E+04  0.00000000000E+00 0. -1.
          2   -1    0    0  502    0  0.00000000000E+00 -0.00000000000E+00 -0.72252386981E+03  0.72252386981E+03  0.00000000000E+00 0. -1.
         24    2    1    2    0    0  0.74154637102E+01 -0.31005043120E+02  0.57846572766E+02  0.10268013402E+03  0.78617314506E+02 0.  0.
         25    2    1    2    0    0  0.44286129731E+02 -0.51377591142E+02  0.71402665898E+02  0.15913763344E+03  0.12500211007E+03 0.  0.
         24    2    1    2    0    0 -0.38130151212E+02 -0.15988110326E+02 -0.25751115651E+03  0.27286350866E+03  0.80205801082E+02 0.  0.
        -13    1    3    3    0    0  0.41172729077E+02 -0.26823161293E+02  0.23972564623E+02  0.54675035034E+02  0.00000000000E+00 0.  1.
         14    1    3    3    0    0 -0.33757265367E+02 -0.41818818272E+01  0.33874008143E+02  0.48005098983E+02  0.00000000000E+00 0. -1.
        -13    1    5    5    0    0 -0.47669416422E+02 -0.33507750419E+02 -0.23774371439E+03  0.24477993450E+03  0.00000000000E+00 0.  1.
         14    1    5    5    0    0  0.95392652105E+01  0.17519640093E+02 -0.19767442120E+02  0.28083574162E+02  0.00000000000E+00 0. -1.
          5    1    4    4  501    0 -0.42618471437E+02 -0.17422453523E+02  0.10014959985E+02  0.47352565061E+02  0.47000000000E+01 0. -1.
         -5    1    4    4    0  501  0.86904601167E+02 -0.33955137619E+02  0.61387705913E+02  0.11178506838E+03  0.47000000000E+01 0. -1.
          1    1    1    2  502    0 -0.34986882311E+01  0.84056675922E+02 -0.38643707344E+03  0.39548878279E+03  0.00000000000E+00 0. -1.
          3    1    1    2  503    0 -0.10072753998E+02  0.14314068667E+02  0.85713244888E+03  0.85731113830E+03  0.00000000000E+00 0. -1.
<mgrwt>
<rscale>  0 0.38238981E+02</rscale>
<asrwt>0</asrwt>
<pdfrwt beam="2">  1        2 0.10625351E+00 0.83541371E+02</pdfrwt>
<pdfrwt beam="1">  1        4 0.15661137E+00 0.17502941E+02</pdfrwt>
<totfact> 0.60486639E+00</totfact>
</mgrwt>
</event>
<event>
13    1  0.1595792E-008  0.1019094E+03  0.7546771E-02  0.1363276E+00
          4   -1    0    0  503    0 -0.00000000000E+00  0.00000000000E+00  0.52352881610E+03  0.52352881610E+03  0.00000000000E+00 0. -1.
          2   -1    0    0  502    0  0.00000000000E+00 -0.00000000000E+00 -0.18840888191E+04  0.18840888191E+04  0.00000000000E+00 0. -1.
         24    2    1    2    0    0 -0.16008513104E+03  0.26155374131E+01  0.15627885543E+03  0.23725101381E+03  0.78935877049E+02 0.  0.
         25    2    1    2    0    0  0.22285135402E+03 -0.13459051812E+02 -0.60614597885E+03  0.65793704628E+03  0.12499734849E+03 0.  0.
         24    2    1    2    0    0 -0.27264988068E+01  0.26969999631E+02 -0.10568894784E+03  0.14094311447E+03  0.89218793678E+02 0.  0.
        -11    1    5    5    0    0  0.33934981542E+02 -0.10985443600E+02 -0.21696363781E+02  0.41749193341E+02  0.00000000000E+00 0.  1.
         12    1    5    5    0    0 -0.36661480348E+02  0.37955443231E+02 -0.83992584058E+02  0.99193921129E+02  0.00000000000E+00 0. -1.
        -13    1    3    3    0    0  0.74406683688E+01 -0.24138422761E+01 -0.38317004064E+00  0.78317941487E+01  0.00000000000E+00 0.  1.
         14    1    3    3    0    0 -0.16752579941E+03  0.50293796892E+01  0.15666202547E+03  0.22941921966E+03  0.00000000000E+00 0. -1.
          5    1    4    4  501    0  0.12699700768E+03 -0.62877143509E+02 -0.27122857363E+03  0.30605359709E+03  0.47000000000E+01 0.  1.
         -5    1    4    4    0  501  0.95854346337E+02  0.49418091697E+02 -0.33491740522E+03  0.35188344919E+03  0.47000000000E+01 0.  1.
          1    1    1    2  502    0  0.42331702546E+02 -0.19994199134E+02 -0.10784575361E+04  0.10794732041E+04  0.00000000000E+00 0. -1.
          3    1    1    2  503    0 -0.10237142672E+03  0.38677139020E+01  0.27345360443E+03  0.29201325654E+03  0.00000000000E+00 0. -1.
<mgrwt>
<rscale>  0 0.69072398E+02</rscale>
<asrwt>0</asrwt>
<pdfrwt beam="2">  1        2 0.27707188E+00 0.46816034E+02</pdfrwt>
<pdfrwt beam="1">  1        4 0.76989532E-01 0.10190945E+03</pdfrwt>
<totfact> 0.88789804E+00</totfact>
</mgrwt>
</event>
<event>
13    1  0.1595792E-008  0.7051795E+02  0.7546771E-02  0.1371031E+00
          2   -1    0    0  503    0  0.00000000000E+00  0.00000000000E+00  0.42995410680E+04  0.42995410680E+04  0.00000000000E+00 0. -1.
          2   -1    0    0  502    0 -0.00000000000E+00 -0.00000000000E+00 -0.98233538510E+03  0.98233538510E+03  0.00000000000E+00 0. -1.
         24    2    1    2    0    0 -0.30384463091E+02 -0.79125737726E+02  0.20394959929E+03  0.23486135596E+03  0.79876902182E+02 0.  0.
         25    2    1    2    0    0  0.99061286072E+02 -0.74177446046E+02  0.48794189405E+03  0.51868766730E+03  0.12503668396E+03 0.  0.
         24    2    1    2    0    0 -0.53276462360E+02  0.27744003612E+02  0.61090770866E+03  0.61813773233E+03  0.72649270152E+02 0.  0.
        -11    1    5    5    0    0 -0.32284760137E+02 -0.22802660227E+02  0.26015099189E+03  0.26313647720E+03  0.00000000000E+00 0.  1.
         12    1    5    5    0    0 -0.20991702223E+02  0.50546663838E+02  0.35075671677E+03  0.35500125513E+03  0.00000000000E+00 0. -1.
        -11    1    3    3    0    0 -0.34535010841E+02 -0.56998999180E+02  0.61633914594E+02  0.90776055816E+02  0.00000000000E+00 0.  1.
         12    1    3    3    0    0  0.41505477502E+01 -0.22126738546E+02  0.14231568470E+03  0.14408530014E+03  0.00000000000E+00 0. -1.
          5    1    4    4  501    0 -0.23144211044E+02 -0.79694860841E+01  0.16785808162E+03  0.16969853499E+03  0.47000000000E+01 0. -1.
         -5    1    4    4    0  501  0.12220549712E+03 -0.66207959962E+02  0.32008381244E+03  0.34898913231E+03  0.47000000000E+01 0. -1.
          1    1    1    2  502    0  0.13623439910E+02  0.61951884338E+02 -0.94641725164E+03  0.94854058863E+03  0.00000000000E+00 0. -1.
          1    1    1    2  503    0 -0.29023800531E+02  0.63607295823E+02  0.29608237325E+04  0.29616491088E+04  0.00000000000E+00 0. -1.
<mgrwt>
<rscale>  0 0.66881260E+02</rscale>
<asrwt>0</asrwt>
<pdfrwt beam="1">  1        2 0.63228544E+00 0.70517945E+02</pdfrwt>
<pdfrwt beam="2">  1        2 0.14446109E+00 0.63432122E+02</pdfrwt>
<totfact> 0.23586812E+00</totfact>
</mgrwt>
</event>
<event>
13    1  0.1595792E-008  0.6347475E+02  0.7546771E-02  0.1427057E+00
          2   -1    0    0  503    0  0.00000000000E+00  0.00000000000E+00  0.23718289569E+04  0.23718289569E+04  0.00000000000E+00 0. -1.
         -1   -1    0    0    0  501 -0.00000000000E+00 -0.00000000000E+00 -0.13402386880E+04  0.13402386880E+04  0.00000000000E+00 0.  1.
         24    2    1    2    0    0 -0.19373830516E+02  0.17426524225E+02  0.14375903023E+03  0.16672156359E+03  0.80314332091E+02 0.  0.
         25    2    1    2    0    0  0.57314193889E+02 -0.75974105300E+02  0.21165993114E+03  0.26359444986E+03  0.12500050420E+03 0.  0.
         24    2    1    2    0    0 -0.92177478440E+02 -0.26446737912E+02  0.84375110354E+03  0.85304175333E+03  0.81044374996E+02 0.  0.
        -11    1    5    5    0    0 -0.41533763782E+02 -0.52397444921E+02  0.38334645481E+03  0.38913371762E+03  0.00000000000E+00 0.  1.
         12    1    5    5    0    0 -0.50643714658E+02  0.25950707009E+02  0.46040464872E+03  0.46390803571E+03  0.00000000000E+00 0. -1.
        -13    1    3    3    0    0  0.11671401059E+02  0.31205227872E+02  0.21075100189E+02  0.39422679985E+02  0.00000000000E+00 0.  1.
         14    1    3    3    0    0 -0.31045231575E+02 -0.13778703647E+02  0.12268393004E+03  0.12729888361E+03  0.00000000000E+00 0. -1.
          5    1    4    4  502    0  0.64046479252E+02 -0.37679704495E+02  0.21171888183E+03  0.22442969180E+03  0.47000000000E+01 0. -1.
         -5    1    4    4    0  502 -0.67322853634E+01 -0.38294400806E+02 -0.58950689497E-01  0.39164758067E+02  0.47000000000E+01 0. -1.
          1    1    1    2  503    0  0.48234802743E+02  0.40208628477E+02  0.11292992787E+04  0.11310438501E+04  0.00000000000E+00 0. -1.
         -2    1    1    2    0  501  0.60023123235E+01  0.44785690510E+02 -0.12968790747E+04  0.12976660280E+04  0.00000000000E+00 0.  1.
<mgrwt>
<rscale>  0 0.53555375E+02</rscale>
<asrwt>0</asrwt>
<pdfrwt beam="1">  1        2 0.34879838E+00 0.63474755E+02</pdfrwt>
<pdfrwt beam="2">  1       -1 0.19709392E+00 0.45186124E+02</pdfrwt>
<totfact> 0.15060406E+00</totfact>
</mgrwt>
</event>
<event>
13    1  0.1595792E-008  0.1187377E+03  0.7546771E-02  0.1317250E+00
          2   -1    0    0  502    0  0.00000000000E+00  0.00000000000E+00  0.14057936793E+04  0.14057936793E+04  0.00000000000E+00 0. -1.
          2   -1    0    0  503    0 -0.00000000000E+00 -0.00000000000E+00 -0.27875550296E+04  0.27875550296E+04  0.00000000000E+00 0. -1.
         24    2    1    2    0    0  0.32041382711E+02 -0.93317703253E+02 -0.26474661192E+02  0.13775734780E+03  0.92419344519E+02 0.  0.
         25    2    1    2    0    0 -0.14395831926E+03  0.36882286381E+02  0.16512966938E+03  0.25491213598E+03  0.12501235389E+03 0.  0.
         24    2    1    2    0    0  0.16530781921E+03  0.81504111827E+02  0.48858420052E+03  0.52851808722E+03  0.81530682446E+02 0.  0.
        -13    1    3    3    0    0  0.20298471001E+02  0.15290661445E+02 -0.25958739480E+00  0.25414555633E+02  0.00000000000E+00 0.  1.
         14    1    3    3    0    0  0.11742911710E+02 -0.10860836470E+03 -0.26215073797E+02  0.11234279217E+03  0.00000000000E+00 0. -1.
        -13    1    5    5    0    0  0.14800910122E+03  0.96820452938E+02  0.45048590142E+03  0.48396119837E+03  0.00000000000E+00 0.  1.
         14    1    5    5    0    0  0.17298717995E+02 -0.15316341111E+02  0.38098299097E+02  0.44556888843E+02  0.00000000000E+00 0. -1.
          5    1    4    4  501    0 -0.37323422161E+02  0.64128729269E+02  0.29025967278E+02  0.79813084991E+02  0.47000000000E+01 0.  1.
         -5    1    4    4    0  501 -0.10663489710E+03 -0.27246442888E+02  0.13610370211E+03  0.17509905099E+03  0.47000000000E+01 0.  1.
          1    1    1    2  502    0  0.54645808877E+02  0.24441472877E+02  0.62882094410E+03  0.63166393736E+03  0.00000000000E+00 0. -1.
          1    1    1    2  503    0 -0.10803669154E+03 -0.49510167832E+02 -0.26378215032E+04  0.26404972005E+04  0.00000000000E+00 0. -1.
<mgrwt>
<rscale>  0 0.84308771E+02</rscale>
<asrwt>0</asrwt>
<pdfrwt beam="1">  1        2 0.20673437E+00 0.59862760E+02</pdfrwt>
<pdfrwt beam="2">  1        2 0.40993456E+00 0.11873774E+03</pdfrwt>
<totfact> 0.10533323E+01</totfact>
</mgrwt>
</event>
<event>
13    1  0.1595792E-008  0.1038995E+03  0.7546771E-02  0.1425020E+00
          2   -1    0    0  503    0  0.00000000000E+00  0.00000000000E+00  0.25382946525E+04  0.25382946525E+04  0.00000000000E+00 0. -1.
         -1   -1    0    0    0  501 -0.00000000000E+00 -0.00000000000E+00 -0.69117614799E+03  0.69117614799E+03  0.00000000000E+00 0.  1.
         24    2    1    2    0    0 -0.10941114956E+03  0.11272035560E+02 -0.16426678662E+03  0.21366982732E+03  0.81076257228E+02 0.  0.
         25    2    1    2    0    0  0.22909235802E+02 -0.89645671459E+02  0.30122102237E+02  0.15841758325E+03  0.12501044013E+03 0.  0.
         24    2    1    2    0    0  0.20811471857E+03  0.45925150310E+02  0.16477669593E+04  0.16633373042E+04  0.78321003842E+02 0.  0.
        -11    1    5    5    0    0  0.19175814783E+03  0.64082730240E+02  0.14996629637E+04  0.15132305800E+04  0.00000000000E+00 0.  1.
         12    1    5    5    0    0  0.16356570744E+02 -0.18157579930E+02  0.14810399567E+03  0.15010672420E+03  0.00000000000E+00 0. -1.
        -13    1    3    3    0    0 -0.44769911959E+02  0.37555786781E+02 -0.11254300577E+03  0.12680974050E+03  0.00000000000E+00 0.  1.
         14    1    3    3    0    0 -0.64641237604E+02 -0.26283751221E+02 -0.51723780852E+02  0.86860086823E+02  0.00000000000E+00 0. -1.
          5    1    4    4  502    0 -0.25948704124E+02 -0.96943123173E+02  0.39434974658E+02  0.10792827064E+03  0.47000000000E+01 0. -1.
         -5    1    4    4    0  502  0.48857939926E+02  0.72974517137E+01 -0.93128724206E+01  0.50489312613E+02  0.47000000000E+01 0. -1.
          1    1    1    2  503    0 -0.18402065040E+02  0.21153063093E+02  0.75724448280E+03  0.75776335013E+03  0.00000000000E+00 0. -1.
         -2    1    1    2    0  501 -0.10321073977E+03  0.11295422497E+02 -0.42374825318E+03  0.43628273567E+03  0.00000000000E+00 0.  1.
<mgrwt>
<rscale>  0 0.53972745E+02</rscale>
<asrwt>0</asrwt>
<pdfrwt beam="1">  1        2 0.37327862E+00 0.28037262E+02</pdfrwt>
<pdfrwt beam="2">  1       -1 0.10164355E+00 0.10389949E+03</pdfrwt>
<totfact> 0.70126896E+00</totfact>
</mgrwt>
</event>
<event>
13    1  0.1595792E-008  0.1002935E+03  0.7546771E-02  0.1314537E+00
         -1   -1    0    0    0  501 -0.00000000000E+00  0.00000000000E+00  0.11952884014E+04  0.11952884014E+04  0.00000000000E+00 0.  1.
          2   -1    0    0  503    0  0.00000000000E+00 -0.00000000000E+00 -0.35319758081E+03  0.35319758081E+03  0.00000000000E+00 0. -1.
         24    2    1    2    0    0  0.32239468967E+02  0.68932413514E+02  0.33325483955E+03  0.35090865060E+03  0.79290806462E+02 0.  0.
         25    2    1    2    0    0 -0.14512151436E+03  0.42506669775E+02  0.24300019054E+02  0.19769504282E+03  0.12500307247E+03 0.  0.
         24    2    1    2    0    0  0.38004434366E+02 -0.20095763784E+02  0.22340983556E+02  0.95329215095E+02  0.82099713464E+02 0.  0.
        -11    1    5    5    0    0 -0.25337988846E+02 -0.10669473655E+02 -0.34570394493E-01  0.27492772540E+02  0.00000000000E+00 0.  1.
         12    1    5    5    0    0  0.63342423212E+02 -0.94262901292E+01  0.22375553950E+02  0.67836442555E+02  0.00000000000E+00 0. -1.
        -11    1    3    3    0    0  0.37400857686E+02  0.75317554740E+00  0.75787762458E+02  0.84517314010E+02  0.00000000000E+00 0.  1.
         12    1    3    3    0    0 -0.51613887193E+01  0.68179237966E+02  0.25746707710E+03  0.26639133659E+03  0.00000000000E+00 0. -1.
          5    1    4    4  502    0 -0.11445206383E+03  0.82756726152E+02  0.35387162132E+02  0.14567872831E+03  0.47000000000E+01 0. -1.
         -5    1    4    4    0  502 -0.30669450531E+02 -0.40250056377E+02 -0.11087143078E+02  0.52016314517E+02  0.47000000000E+01 0. -1.
          1    1    1    2  503    0  0.61497163705E+02  0.38626254718E+02 -0.20874137243E+03  0.22101323323E+03  0.00000000000E+00 0. -1.
         -2    1    1    2    0  501  0.13380447320E+02 -0.12996957422E+03  0.67093635087E+03  0.68353984048E+03  0.00000000000E+00 0.  1.
<mgrwt>
<rscale>  0 0.85343242E+02</rscale>
<asrwt>0</asrwt>
<pdfrwt beam="2">  1        2 0.51940821E-01 0.72621544E+02</pdfrwt>
<pdfrwt beam="1">  1       -1 0.17577771E+00 0.10029350E+03</pdfrwt>
<totfact> 0.29158374E+01</totfact>
</mgrwt>
</event>
<event>
13    1  0.1595792E-008  0.9495853E+02  0.7546771E-02  0.1357602E+00
          2   -1    0    0  503    0  0.00000000000E+00  0.00000000000E+00  0.21943784711E+04  0.21943784711E+04  0.00000000000E+00 0. -1.
          2   -1    0    0  502    0 -0.00000000000E+00 -0.00000000000E+00 -0.96664381300E+03  0.96664381300E+03  0.00000000000E+00 0. -1.
         24    2    1    2    0    0 -0.20564994323E+02  0.54330393297E+02 -0.74519779296E+02  0.12400381904E+03  0.80305908891E+02 0.  0.
         25    2    1    2    0    0  0.20901925741E+03  0.59650249648E+02  0.52715313976E+02  0.25622432819E+03  0.12499919911E+03 0.  0.
         24    2    1    2    0    0 -0.59888896407E+02 -0.10263009913E+03  0.12917465631E+03  0.19318282238E+03  0.80708697597E+02 0.  0.
        -11    1    3    3    0    0 -0.41589000012E+02  0.63502051510E+02 -0.53264709507E+02  0.92732328488E+02  0.00000000000E+00 0.  1.
         12    1    3    3    0    0  0.21024005689E+02 -0.91716582129E+01 -0.21255069790E+02  0.31271490552E+02  0.00000000000E+00 0. -1.
        -11    1    5    5    0    0  0.20246814060E+02 -0.19261705110E+02  0.27400466005E+02  0.39137351732E+02  0.00000000000E+00 0.  1.
         12    1    5    5    0    0 -0.80135710466E+02 -0.83368394023E+02  0.10177419031E+03  0.15404547065E+03  0.00000000000E+00 0. -1.
          5    1    4    4  501    0  0.94269864614E+02 -0.21173275232E+02  0.62958241906E+02  0.11541639911E+03  0.47000000000E+01 0.  1.
         -5    1    4    4    0  501  0.11474939279E+03  0.80823524880E+02 -0.10242927930E+02  0.14080792908E+03  0.47000000000E+01 0.  1.
          1    1    1    2  502    0 -0.85232864974E+02 -0.41334513943E+02 -0.73018898203E+03  0.73630777043E+03  0.00000000000E+00 0. -1.
          1    1    1    2  503    0 -0.43332501704E+02  0.29983970132E+02  0.18505534491E+04  0.18513035441E+04  0.00000000000E+00 0. -1.
<mgrwt>
<rscale>  0 0.70737705E+02</rscale>
<asrwt>0</asrwt>
<pdfrwt beam="1">  1        2 0.32270272E+00 0.52694821E+02</pdfrwt>
<pdfrwt beam="2">  1        2 0.14215350E+00 0.94958533E+02</pdfrwt>
<totfact> 0.38168998E+01</totfact>
</mgrwt>
</event>
<event>
13    1  0.1595792E-008  0.9530533E+02  0.7546771E-02  0.1318533E+00
          2   -1    0    0  503    0  0.00000000000E+00  0.00000000000E+00  0.12244831078E+04  0.12244831078E+04  0.00000000000E+00 0. -1.
          2   -1    0    0  502    0 -0.00000000000E+00 -0.00000000000E+00 -0.96739329030E+03  0.96739329030E+03  0.00000000000E+00 0. -1.
         24    2    1    2    0    0  0.39693290771E+02  0.25845876764E+01  0.17430409153E+02  0.91874106974E+02  0.80961688121E+02 0.  0.
         25    2    1    2    0    0  0.11596457087E+03  0.18789783089E+02  0.63536252230E+02  0.18293123663E+03  0.12500457729E+03 0.  0.
         24    2    1    2    0    0 -0.17784457684E+03 -0.28336860853E+02  0.39800786320E+03  0.44675978563E+03  0.93554132446E+02 0.  0.
        -11    1    5    5    0    0 -0.15364687338E+03 -0.55316028613E+02  0.35324913430E+03  0.38916856965E+03  0.00000000000E+00 0.  1.
         12    1    5    5    0    0 -0.24197703461E+02  0.26979167761E+02  0.44758728902E+02  0.57591215986E+02  0.00000000000E+00 0. -1.
        -11    1    3    3    0    0 -0.20179601606E+02  0.16876162774E+02 -0.41791614208E+01  0.26636189313E+02  0.00000000000E+00 0.  1.
         12    1    3    3    0    0  0.59872892377E+02 -0.14291575098E+02  0.21609570574E+02  0.65237917661E+02  0.00000000000E+00 0. -1.
          5    1    4    4  501    0  0.12908509508E+03  0.27070691922E+02  0.16286691163E+02  0.13297793216E+03  0.47000000000E+01 0.  1.
         -5    1    4    4    0  501 -0.13120524208E+02 -0.82809088328E+01  0.47249561067E+02  0.49953304472E+02  0.47000000000E+01 0.  1.
          1    1    1    2  502    0 -0.72911921444E+02 -0.10939669931E+02 -0.84072453879E+03  0.84395116849E+03  0.00000000000E+00 0. -1.
          1    1    1    2  503    0  0.95098636645E+02  0.17902160018E+02  0.61883983176E+03  0.62636010042E+03  0.00000000000E+00 0. -1.
<mgrwt>
<rscale>  0 0.83825269E+02</rscale>
<asrwt>0</asrwt>
<pdfrwt beam="1">  1        2 0.18007105E+00 0.95305329E+02</pdfrwt>
<pdfrwt beam="2">  1        2 0.14226372E+00 0.73728045E+02</pdfrwt>
<totfact> 0.10747019E+02</totfact>
</mgrwt>
</event>
<event>
13    1  0.1595792E-008  0.1765766E+03  0.7546771E-02  0.1207413E+00
          2   -1    0    0  503    0  0.00000000000E+00  0.00000000000E+00  0.41116661895E+04  0.41116661895E+04  0.00000000000E+00 0. -1.
          2   -1    0    0  502    0 -0.00000000000E+00 -0.00000000000E+00 -0.12662520523E+04  0.12662520523E+04  0.00000000000E+00 0. -1.
         24    2    1    2    0    0 -0.14996793037E+03  0.10705887853E+03  0.88941279318E+02  0.21946966738E+03  0.79400252656E+02 0.  0.
         25    2    1    2    0    0  0.11364762884E+04  0.26143378227E+03 -0.21771648360E+03  0.11928751050E+04  0.12499828919E+03 0.  0.
         24    2    1    2    0    0 -0.78015418635E+03 -0.46353995372E+03  0.21038914512E+04  0.22922490086E+04  0.67353069635E+02 0.  0.
        -13    1    5    5    0    0 -0.29760888505E+03 -0.17964014383E+03  0.88952581426E+03  0.95503811650E+03  0.00000000000E+00 0.  1.
         14    1    5    5    0    0 -0.48254530130E+03 -0.28389980989E+03  0.12143656369E+04  0.13372108921E+04  0.00000000000E+00 0. -1.
        -13    1    3    3    0    0 -0.11234083740E+03  0.32649155068E+02  0.46313050762E+02  0.12582261222E+03  0.00000000000E+00 0.  1.
         14    1    3    3    0    0 -0.37627092969E+02  0.74409723459E+02  0.42628228556E+02  0.93647055161E+02  0.00000000000E+00 0. -1.
          5    1    4    4  501    0  0.42637786400E+02  0.28043167307E+02  0.79612864372E+01  0.51863977319E+02  0.47000000000E+01 0. -1.
         -5    1    4    4    0  501  0.10938385020E+04  0.23339061496E+03 -0.22567777004E+03  0.11410111277E+04  0.47000000000E+01 0. -1.
          1    1    1    2  502    0 -0.10683370261E+03 -0.50651929076E+02 -0.38651106177E+03  0.40419037446E+03  0.00000000000E+00 0. -1.
          1    1    1    2  503    0 -0.99520469114E+02  0.14569922200E+03  0.12568089521E+04  0.12691340863E+04  0.00000000000E+00 0. -1.
<mgrwt>
<rscale>  0 0.14448944E+03</rscale>
<asrwt>0</asrwt>
<pdfrwt beam="1">  1        2 0.60465679E+00 0.17657665E+03</pdfrwt>
<pdfrwt beam="2">  1        2 0.18621354E+00 0.11823307E+03</pdfrwt>
<totfact> 0.17881063E+00</totfact>
</mgrwt>
</event>
<event>
13    1  0.1595792E-008  0.2255483E+03  0.7546771E-02  0.1240488E+00
          4   -1    0    0  503    0 -0.00000000000E+00  0.00000000000E+00  0.21900402329E+04  0.21900402329E+04  0.00000000000E+00 0. -1.
          2   -1    0    0  502    0  0.00000000000E+00 -0.00000000000E+00 -0.10866942218E+04  0.10866942218E+04  0.00000000000E+00 0. -1.
         24    2    1    2    0    0  0.10383526069E+03  0.15721882464E+03  0.60870505028E+03  0.64226400799E+03  0.80508990449E+02 0.  0.
         25    2    1    2    0    0 -0.14810191133E+03  0.91956031004E+01  0.41702609164E+02  0.19844464565E+03  0.12498973765E+03 0.  0.
         24    2    1    2    0    0  0.96848895873E+02  0.57767987902E+02 -0.12219656950E+03  0.18438271430E+03  0.79675182298E+02 0.  0.
        -11    1    5    5    0    0 -0.96469316334E+00  0.26471570690E+02 -0.24097308791E+01  0.26598524218E+02  0.00000000000E+00 0.  1.
         12    1    5    5    0    0  0.97813589037E+02  0.31296417212E+02 -0.11978683863E+03  0.15778419008E+03  0.00000000000E+00 0. -1.
        -13    1    3    3    0    0  0.36294122286E+01  0.17019741401E+01 -0.17624619266E+01  0.43789977326E+01  0.00000000000E+00 0.  1.
         14    1    3    3    0    0  0.10020584846E+03  0.15551685050E+03  0.61046751220E+03  0.63788501026E+03  0.00000000000E+00 0. -1.
          5    1    4    4  501    0 -0.14225204540E+02 -0.76244834470E+01  0.59898827173E+02  0.62212930238E+02  0.47000000000E+01 0.  1.
         -5    1    4    4    0  501 -0.13387670679E+03  0.16820086547E+02 -0.18196218009E+02  0.13623171541E+03  0.47000000000E+01 0.  1.
          1    1    1    2  502    0  0.65472370193E+02 -0.32528369042E+01 -0.82584642842E+03  0.82844404491E+03  0.00000000000E+00 0. -1.
          3    1    1    2  503    0 -0.11805461542E+03 -0.22092957874E+03  0.14009813496E+04  0.14231990419E+04  0.00000000000E+00 0. -1.
<mgrwt>
<rscale>  0 0.12159520E+03</rscale>
<asrwt>0</asrwt>
<pdfrwt beam="2">  1        2 0.15980797E+00 0.65553125E+02</pdfrwt>
<pdfrwt beam="1">  1        4 0.32206474E+00 0.22554826E+03</pdfrwt>
<totfact> 0.38121038E-01</totfact>
</mgrwt>
</event>
<event>
13    1  0.1595792E-008  0.6452900E+02  0.7546771E-02  0.1464126E+00
         -1   -1    0    0    0  501 -0.00000000000E+00  0.00000000000E+00  0.15351804568E+03  0.15351804568E+03  0.00000000000E+00 0.  1.
          2   -1    0    0  503    0  0.00000000000E+00 -0.00000000000E+00 -0.12920340798E+04  0.12920340798E+04  0.00000000000E+00 0. -1.
         24    2    1    2    0    0  0.82754802168E+01  0.19010113068E+02  0.11114825488E+02  0.83235767792E+02  0.79842255246E+02 0.  0.
         25    2    1    2    0    0 -0.13047234582E+03 -0.83349137394E+02 -0.54569871514E+03  0.58083831467E+03  0.12496378817E+03 0.  0.
         24    2    1    2    0    0  0.31897626604E+02  0.49928804685E+02 -0.19521246368E+03  0.21930983822E+03  0.80489471637E+02 0.  0.
        -11    1    5    5    0    0  0.82811707269E+01  0.53443541978E+02 -0.18602466417E+03  0.19372652283E+03  0.00000000000E+00 0.  1.
         12    1    5    5    0    0  0.23616455877E+02 -0.35147372931E+01 -0.91877995034E+01  0.25583315386E+02  0.00000000000E+00 0. -1.
        -11    1    3    3    0    0  0.39642770081E+01  0.41261818471E+02  0.32037651973E+02  0.52389543801E+02  0.00000000000E+00 0.  1.
         12    1    3    3    0    0  0.43112032087E+01 -0.22251705403E+02 -0.20922826484E+02  0.30846223992E+02  0.00000000000E+00 0. -1.
          5    1    4    4  502    0 -0.41855694260E+01 -0.42715614577E+02 -0.28537403127E+03  0.28862184679E+03  0.47000000000E+01 0. -1.
         -5    1    4    4    0  502 -0.12628677639E+03 -0.40633522818E+02 -0.26032468387E+03  0.29221646788E+03  0.47000000000E+01 0. -1.
          1    1    1    2  503    0  0.31698156339E+02 -0.11635765293E+02 -0.47133344287E+03  0.47254140402E+03  0.00000000000E+00 0. -1.
         -2    1    1    2    0  501  0.58601082657E+02  0.26045984935E+02  0.62613762070E+02  0.89626800793E+02  0.00000000000E+00 0.  1.
<mgrwt>
<rscale>  0 0.46678762E+02</rscale>
<asrwt>0</asrwt>
<pdfrwt beam="2">  1        2 0.19000501E+00 0.33766317E+02</pdfrwt>
<pdfrwt beam="1">  1       -1 0.22576183E-01 0.64529004E+02</pdfrwt>
<totfact> 0.39831690E+02</totfact>
</mgrwt>
</event>
<event>
13    1  0.1595792E-008  0.2422116E+03  0.7546771E-02  0.1407637E+00
          2   -1    0    0  502    0  0.00000000000E+00  0.00000000000E+00  0.37131240132E+04  0.37131240132E+04  0.00000000000E+00 0. -1.
          2   -1    0    0  503    0 -0.00000000000E+00 -0.00000000000E+00 -0.27324008409E+03  0.27324008409E+03  0.00000000000E+00 0. -1.
         24    2    1    2    0    0  0.60917177949E+01  0.37613535326E+02 -0.71686442004E+02  0.11573852192E+03  0.82489832238E+02 0.  0.
         25    2    1    2    0    0  0.39371281042E+02 -0.28764890816E+03  0.23309811488E+03  0.39274885160E+03  0.12499974855E+03 0.  0.
         24    2    1    2    0    0  0.17787975054E+03  0.18638607924E+03  0.10424415050E+04  0.10768390497E+04  0.80728380724E+02 0.  0.
        -13    1    3    3    0    0  0.65144054176E+01  0.42622752821E+02 -0.88362493379E+02  0.98321242731E+02  0.00000000000E+00 0.  1.
         14    1    3    3    0    0 -0.42268762274E+00 -0.50092174953E+01  0.16676051375E+02  0.17417279185E+02  0.00000000000E+00 0. -1.
        -13    1    5    5    0    0  0.47032124561E+02  0.44156180019E+02  0.42469907642E+03  0.42957082593E+03  0.00000000000E+00 0.  1.
         14    1    5    5    0    0  0.13084762598E+03  0.14222989922E+03  0.61774242856E+03  0.64726822377E+03  0.00000000000E+00 0. -1.
          5    1    4    4  501    0  0.66859113781E+02 -0.10012403892E+03  0.54328186243E+02  0.13216885445E+03  0.47000000000E+01 0. -1.
         -5    1    4    4    0  501 -0.27487832739E+02 -0.18752486923E+03  0.17876992864E+03  0.26057999715E+03  0.47000000000E+01 0. -1.
          1    1    1    2  502    0 -0.23045223893E+03  0.75426867075E+02  0.23115713460E+04  0.23242546191E+04  0.00000000000E+00 0. -1.
          1    1    1    2  503    0  0.71094895494E+01 -0.11777573478E+02 -0.75540594753E+02  0.76783054995E+02  0.00000000000E+00 0. -1.
<mgrwt>
<rscale>  0 0.57724461E+02</rscale>
<asrwt>0</asrwt>
<pdfrwt beam="1">  1        2 0.54604762E+00 0.24221155E+03</pdfrwt>
<pdfrwt beam="2">  1        2 0.40182368E-01 0.13757037E+02</pdfrwt>
<totfact> 0.18009590E+01</totfact>
</mgrwt>
</event>
<event>
13    1  0.1595792E-008  0.9553362E+02  0.7546771E-02  0.1456171E+00
          2   -1    0    0  502    0  0.00000000000E+00  0.00000000000E+00  0.18026280569E+04  0.18026280569E+04  0.00000000000E+00 0. -1.
          2   -1    0    0  503    0 -0.00000000000E+00 -0.00000000000E+00 -0.12393348759E+04  0.12393348759E+04  0.00000000000E+00 0. -1.
         24    2    1    2    0    0 -0.42244394024E+02  0.36889961620E+02 -0.17911824233E+03  0.20405700421E+03  0.80065336680E+02 0.  0.
         25    2    1    2    0    0 -0.95284346691E+02 -0.82682647811E+02  0.77555716786E+03  0.79562568942E+03  0.12496315489E+03 0.  0.
         24    2    1    2    0    0  0.10468159380E+03 -0.23575774374E+02  0.72781830231E+03  0.74016347122E+03  0.81292248947E+02 0.  0.
        -11    1    3    3    0    0 -0.20316207132E+02  0.54873165054E+01 -0.15877515185E+00  0.21044812287E+02  0.00000000000E+00 0.  1.
         12    1    3    3    0    0 -0.21928186892E+02  0.31402645115E+02 -0.17895946717E+03  0.18301219192E+03  0.00000000000E+00 0. -1.
        -11    1    5    5    0    0 -0.11063239211E+02  0.27361014702E+01  0.14105821474E+03  0.14151784855E+03  0.00000000000E+00 0.  1.
         12    1    5    5    0    0  0.11574483301E+03 -0.26311875844E+02  0.58676008757E+03  0.59864562267E+03  0.00000000000E+00 0. -1.
          5    1    4    4  501    0 -0.62709020911E+02 -0.58935837584E+02  0.18965304549E+03  0.20831759868E+03  0.47000000000E+01 0. -1.
         -5    1    4    4    0  501 -0.32575325780E+02 -0.23746810227E+02  0.58590412237E+03  0.58730809075E+03  0.47000000000E+01 0. -1.
          1    1    1    2  502    0  0.78285872269E+01 -0.22860943578E+02  0.26781799447E+03  0.26890590860E+03  0.00000000000E+00 0. -1.
          1    1    1    2  503    0  0.25018559686E+02  0.92229404142E+02 -0.10287820413E+04  0.10332108593E+04  0.00000000000E+00 0. -1.
<mgrwt>
<rscale>  0 0.48046803E+02</rscale>
<asrwt>0</asrwt>
<pdfrwt beam="1">  1        2 0.26509236E+00 0.24164220E+02</pdfrwt>
<pdfrwt beam="2">  1        2 0.18225513E+00 0.95533615E+02</pdfrwt>
<totfact> 0.44697554E+01</totfact>
</mgrwt>
</event>
<event>
13    1  0.1595792E-008  0.1481504E+03  0.7546771E-02  0.1321868E+00
          2   -1    0    0  502    0  0.00000000000E+00  0.00000000000E+00  0.52118447082E+03  0.52118447082E+03  0.00000000000E+00 0. -1.
          2   -1    0    0  503    0 -0.00000000000E+00 -0.00000000000E+00 -0.17711398780E+04  0.17711398780E+04  0.00000000000E+00 0. -1.
         24    2    1    2    0    0 -0.62793203225E+02 -0.78699215656E+01 -0.23901360394E+03  0.25992512444E+03  0.80178833950E+02 0.  0.
         25    2    1    2    0    0 -0.17648929699E+03 -0.15322592637E+03 -0.37714034564E+03  0.46096189252E+03  0.12499747830E+03 0.  0.
         24    2    1    2    0    0  0.84953027618E+02  0.10739461230E+03  0.32726859022E+02  0.16254261889E+03  0.81230757723E+02 0.  0.
        -13    1    3    3    0    0 -0.74743486922E+02 -0.22125795493E+02 -0.21966143108E+03  0.23308213995E+03  0.00000000000E+00 0.  1.
         14    1    3    3    0    0  0.11950283697E+02  0.14255873927E+02 -0.19352172861E+02  0.26842984490E+02  0.00000000000E+00 0. -1.
        -13    1    5    5    0    0  0.78285902547E+02  0.12010014681E+03  0.36026373372E+02  0.14781957712E+03  0.00000000000E+00 0.  1.
         14    1    5    5    0    0  0.66671250716E+01 -0.12705534510E+02 -0.32995143501E+01  0.14723041766E+02  0.00000000000E+00 0. -1.
          5    1    4    4  501    0 -0.82963477790E+02 -0.47325280384E+02 -0.57820108811E+02  0.11174916462E+03  0.47000000000E+01 0. -1.
         -5    1    4    4    0  501 -0.93525819200E+02 -0.10590064599E+03 -0.31932023683E+03  0.34921272790E+03  0.47000000000E+01 0. -1.
          1    1    1    2  502    0  0.12205384127E+03  0.86530202602E+02  0.35556744748E+03  0.38576265480E+03  0.00000000000E+00 0. -1.
          1    1    1    2  503    0  0.32275631326E+02 -0.32828966963E+02 -0.10220957641E+04  0.10231320582E+04  0.00000000000E+00 0. -1.
<mgrwt>
<rscale>  0 0.82586219E+02</rscale>
<asrwt>0</asrwt>
<pdfrwt beam="1">  1        2 0.76644774E-01 0.14815040E+03</pdfrwt>
<pdfrwt beam="2">  1        2 0.26046175E+00 0.46037566E+02</pdfrwt>
<totfact> 0.12476182E+02</totfact>
</mgrwt>
</event>
<event>
13    1  0.1595792E-008  0.1149009E+03  0.7546771E-02  0.1331977E+00
          2   -1    0    0  503    0  0.00000000000E+00  0.00000000000E+00  0.75023451500E+03  0.75023451500E+03  0.00000000000E+00 0. -1.
         -1   -1    0    0    0  501 -0.00000000000E+00 -0.00000000000E+00 -0.12218163828E+04  0.12218163828E+04  0.00000000000E+00 0.  1.
         24    2    1    2    0    0 -0.30187402377E+02  0.10084449968E+03 -0.20277487433E+03  0.24151830312E+03  0.78310591271E+02 0.  0.
         25    2    1    2    0    0 -0.55212225527E+01 -0.21495228325E+03 -0.28698549250E+03  0.37976536963E+03  0.12500438029E+03 0.  0.
         24    2    1    2    0    0  0.92077071272E+01  0.28586581692E+02 -0.37023949032E+02  0.92599089287E+02  0.79384154663E+02 0.  0.
        -11    1    3    3    0    0 -0.14675335252E+02  0.10454111060E+03 -0.13226843970E+03  0.16923105333E+03  0.00000000000E+00 0.  1.
         12    1    3    3    0    0 -0.15512067125E+02 -0.36966109154E+01 -0.70506434627E+02  0.72287249792E+02  0.00000000000E+00 0. -1.
        -13    1    5    5    0    0 -0.32670383205E+02  0.11330527498E+01 -0.47710653479E+01  0.33036355911E+02  0.00000000000E+00 0.  1.
         14    1    5    5    0    0  0.41878090333E+02  0.27453528942E+02 -0.32252883684E+02  0.59562733376E+02  0.00000000000E+00 0. -1.
          5    1    4    4  502    0 -0.17585519086E+02 -0.14823085365E+03 -0.97232365990E+02  0.17820734960E+03  0.47000000000E+01 0.  1.
         -5    1    4    4    0  502  0.12064296533E+02 -0.66721429605E+02 -0.18975312651E+03  0.20155802004E+03  0.47000000000E+01 0.  1.
          1    1    1    2  503    0 -0.20204293710E+02  0.11319099852E+03  0.65040755370E+03  0.66049254465E+03  0.00000000000E+00 0. -1.
         -2    1    1    2    0  501  0.46705211512E+02 -0.27669796646E+02 -0.59520510565E+03  0.59767559112E+03  0.00000000000E+00 0.  1.
<mgrwt>
<rscale>  0 0.78978067E+02</rscale>
<asrwt>0</asrwt>
<pdfrwt beam="1">  1        2 0.11032861E+00 0.11490088E+03</pdfrwt>
<pdfrwt beam="2">  1       -1 0.17967888E+00 0.54286227E+02</pdfrwt>
<totfact> 0.12596448E+01</totfact>
</mgrwt>
</event>
<event>
13    1  0.1595792E-008  0.1249138E+03  0.7546771E-02  0.1341022E+00
          2   -1    0    0  503    0  0.00000000000E+00  0.00000000000E+00  0.10423056961E+04  0.10423056961E+04  0.00000000000E+00 0. -1.
          2   -1    0    0  502    0 -0.00000000000E+00 -0.00000000000E+00 -0.32331607146E+04  0.32331607146E+04  0.00000000000E+00 0. -1.
         24    2    1    2    0    0  0.13453998838E+02 -0.30451695175E+02 -0.12058655586E+03  0.14818830946E+03  0.79437659735E+02 0.  0.
         25    2    1    2    0    0 -0.24518725829E+03  0.17116677729E+03 -0.10590102843E+04  0.11074924208E+04  0.12498728988E+03 0.  0.
         24    2    1    2    0    0  0.78837986647E+02 -0.19496802254E+03 -0.12240521392E+03  0.25581299276E+03  0.78925869764E+02 0.  0.
        -13    1    3    3    0    0  0.36993494439E+02  0.10554589289E+02 -0.61063220805E+02  0.72170873078E+02  0.00000000000E+00 0.  1.
         14    1    3    3    0    0 -0.23539495600E+02 -0.41006284464E+02 -0.59523335052E+02  0.76017436384E+02  0.00000000000E+00 0. -1.
        -13    1    5    5    0    0  0.57878430898E+02 -0.19269543665E+03 -0.12077920891E+03  0.23466798114E+03  0.00000000000E+00 0.  1.
         14    1    5    5    0    0  0.20959555749E+02 -0.22725858868E+01 -0.16260050089E+01  0.21145011613E+02  0.00000000000E+00 0. -1.
          5    1    4    4  501    0 -0.53904317920E+02  0.10789326710E+03 -0.34081026963E+03  0.36155271049E+03  0.47000000000E+01 0. -1.
         -5    1    4    4    0  501 -0.19128294037E+03  0.63273510185E+02 -0.71820001468E+03  0.74593971033E+03  0.47000000000E+01 0. -1.
          1    1    1    2  502    0  0.45273669693E+02 -0.89614945870E+01 -0.18219653146E+04  0.18225497582E+04  0.00000000000E+00 0. -1.
          1    1    1    2  503    0  0.10762160311E+03  0.63214435016E+02  0.93311235012E+03  0.94142292951E+03  0.00000000000E+00 0. -1.
<mgrwt>
<rscale>  0 0.75927794E+02</rscale>
<asrwt>0</asrwt>
<pdfrwt beam="1">  1        2 0.15328025E+00 0.12491379E+03</pdfrwt>
<pdfrwt beam="2">  1        2 0.47546482E+00 0.46152070E+02</pdfrwt>
<totfact> 0.10584735E+01</totfact>
</mgrwt>
</event>
<event>
13    1  0.1595792E-008  0.5994206E+02  0.7546771E-02  0.1402064E+00
          2   -1    0    0  502    0  0.00000000000E+00  0.00000000000E+00  0.12010321248E+04  0.12010321248E+04  0.00000000000E+00 0. -1.
          4   -1    0    0  503    0 -0.00000000000E+00 -0.00000000000E+00 -0.11565548714E+03  0.11565548714E+03  0.00000000000E+00 0. -1.
         24    2    1    2    0    0  0.17071107774E+02 -0.41208515435E+02  0.99704402934E+02  0.13593107301E+03  0.80911829674E+02 0.  0.
         25    2    1    2    0    0  0.49205436234E+02  0.14870077442E+03  0.15005575104E+03  0.25035036226E+03  0.12500192078E+03 0.  0.
         24    2    1    2    0    0 -0.13135316528E+02 -0.71710893743E+01  0.35943973577E+03  0.36860915682E+03  0.80323258049E+02 0.  0.
        -11    1    5    5    0    0 -0.15000056676E+02  0.35708820234E+02  0.17718073798E+03  0.18136464775E+03  0.00000000000E+00 0.  1.
         12    1    5    5    0    0  0.18647401482E+01 -0.42879909608E+02  0.18225899779E+03  0.18724450907E+03  0.00000000000E+00 0. -1.
        -13    1    3    3    0    0 -0.29666143060E+01 -0.62021348529E+02  0.56459473830E+02  0.83923302241E+02  0.00000000000E+00 0.  1.
         14    1    3    3    0    0  0.20037722080E+02  0.20812833094E+02  0.43244929104E+02  0.52007770773E+02  0.00000000000E+00 0. -1.
          5    1    4    4  501    0  0.81150415780E+02  0.14420245519E+03  0.13826579556E+03  0.21568323599E+03  0.47000000000E+01 0.  1.
         -5    1    4    4    0  501 -0.31944979546E+02  0.44983192301E+01  0.11789955479E+02  0.34667126277E+02  0.47000000000E+01 0.  1.
          1    1    1    2  502    0 -0.14562084015E+02 -0.56907330572E+02  0.49672837700E+03  0.50018954315E+03  0.00000000000E+00 0. -1.
          3    1    1    2  503    0 -0.38579143466E+02 -0.43413839043E+02 -0.20551629049E+02  0.61607476718E+02  0.00000000000E+00 0. -1.
<mgrwt>
<rscale>  0 0.59002922E+02</rscale>
<asrwt>0</asrwt>
<pdfrwt beam="1">  1        2 0.17662236E+00 0.59942061E+02</pdfrwt>
<pdfrwt beam="2">  1        4 0.17008161E-01 0.58078496E+02</pdfrwt>
<totfact> 0.32161879E+02</totfact>
</mgrwt>
</event>
<event>
13    1  0.1595792E-008  0.1255471E+03  0.7546771E-02  0.1247412E+00
          2   -1    0    0  502    0  0.00000000000E+00  0.00000000000E+00  0.17954858956E+04  0.17954858956E+04  0.00000000000E+00 0. -1.
          2   -1    0    0  503    0 -0.00000000000E+00 -0.00000000000E+00 -0.27385724562E+04  0.27385724562E+04  0.00000000000E+00 0. -1.
         24    2    1    2    0    0 -0.17088832175E+03  0.95965446272E+02 -0.82908326947E+03  0.85565214113E+03  0.79682705281E+02 0.  0.
         25    2    1    2    0    0  0.54209773337E+02 -0.30570692368E+03 -0.46390795418E+03  0.57204032220E+03  0.12499647020E+03 0.  0.
         24    2    1    2    0    0  0.28509055699E+02 -0.13198364743E+02  0.20637587566E+02  0.90276802681E+02  0.82079400540E+02 0.  0.
        -11    1    3    3    0    0 -0.89477080410E+01  0.16364973425E+02 -0.22966638398E+02  0.29586150707E+02  0.00000000000E+00 0.  1.
         12    1    3    3    0    0 -0.16194061371E+03  0.79600472847E+02 -0.80611663107E+03  0.82606599043E+03  0.00000000000E+00 0. -1.
        -11    1    5    5    0    0  0.35212297312E+02 -0.43514565008E+02  0.71736843010E+01  0.56434785339E+02  0.00000000000E+00 0.  1.
         12    1    5    5    0    0 -0.67032416126E+01  0.30316200265E+02  0.13463903265E+02  0.33842017342E+02  0.00000000000E+00 0. -1.
          5    1    4    4  501    0  0.33063057048E+02 -0.28013042095E+03 -0.33072136236E+03  0.43470096389E+03  0.47000000000E+01 0. -1.
         -5    1    4    4    0  501  0.21146716289E+02 -0.25576502729E+02 -0.13318659182E+03  0.13733935831E+03  0.47000000000E+01 0. -1.
          1    1    1    2  502    0 -0.11526898586E+02  0.14667390615E+03  0.16664979855E+04  0.16729798683E+04  0.00000000000E+00 0. -1.
          1    1    1    2  503    0  0.99696391300E+02  0.76265935995E+02 -0.13372309100E+04  0.13431092174E+04  0.00000000000E+00 0. -1.
<mgrwt>
<rscale>  0 0.11742200E+03</rscale>
<asrwt>0</asrwt>
<pdfrwt beam="1">  1        2 0.26404205E+00 0.10982275E+03</pdfrwt>
<pdfrwt beam="2">  1        2 0.40273124E+00 0.12554707E+03</pdfrwt>
<totfact> 0.68122767E+00</totfact>
</mgrwt>
</event>
<event>
13    1  0.1595792E-008  0.8216156E+02  0.7546771E-02  0.1337356E+00
          2   -1    0    0  503    0  0.00000000000E+00  0.00000000000E+00  0.24266478113E+04  0.24266478113E+04  0.00000000000E+00 0. -1.
          2   -1    0    0  502    0 -0.00000000000E+00 -0.00000000000E+00 -0.17779133829E+04  0.17779133829E+04  0.00000000000E+00 0. -1.
         24    2    1    2    0    0 -0.18269506674E+02  0.31625868881E+02 -0.30425639802E+03  0.31680036987E+03  0.80352648729E+02 0.  0.
         25    2    1    2    0    0  0.15904826801E+03 -0.11961881991E+03  0.43808442314E+02  0.23905781878E+03  0.12499778984E+03 0.  0.
         24    2    1    2    0    0  0.99588146480E+01  0.55100642941E+02  0.54762825813E+03  0.55626692060E+03  0.80005743625E+02 0.  0.
        -11    1    3    3    0    0 -0.36901053846E+01  0.57180103034E+02 -0.17134802630E+03  0.18067464453E+03  0.00000000000E+00 0.  1.
         12    1    3    3    0    0 -0.14579401289E+02 -0.25554234153E+02 -0.13290837172E+03  0.13612572533E+03  0.00000000000E+00 0. -1.
        -11    1    5    5    0    0  0.33280009163E+01  0.70034810611E+02  0.51525626619E+03  0.52000477895E+03  0.00000000000E+00 0.  1.
         12    1    5    5    0    0  0.66308137316E+01 -0.14934167671E+02  0.32371991939E+02  0.36262141647E+02  0.00000000000E+00 0. -1.
          5    1    4    4  501    0  0.16968290003E+03 -0.10477500402E+03  0.92547234478E+01  0.19969433626E+03  0.47000000000E+01 0.  1.
         -5    1    4    4    0  501 -0.10634632012E+02 -0.14843815896E+02  0.34553718866E+02  0.39363482517E+02  0.47000000000E+01 0.  1.
          1    1    1    2  502    0 -0.80865949192E+02  0.13798547167E+02 -0.13634481020E+04  0.13659137705E+04  0.00000000000E+00 0. -1.
          1    1    1    2  503    0 -0.69871626796E+02  0.19093760925E+02  0.17250022280E+04  0.17265223145E+04  0.00000000000E+00 0. -1.
<mgrwt>
<rscale>  0 0.77144356E+02</rscale>
<asrwt>0</asrwt>
<pdfrwt beam="1">  1        2 0.35685997E+00 0.72433528E+02</pdfrwt>
<pdfrwt beam="2">  1        2 0.26145785E+00 0.82161560E+02</pdfrwt>
<totfact> 0.11012109E+01</totfact>
</mgrwt>
</event>
<event>
13    1  0.1595792E-008  0.2286815E+03  0.7546771E-02  0.1220986E+00
          2   -1    0    0  503    0  0.00000000000E+00  0.00000000000E+00  0.26336720263E+04  0.26336720263E+04  0.00000000000E+00 0. -1.
          2   -1    0    0  502    0 -0.00000000000E+00 -0.00000000000E+00 -0.10180146765E+04  0.10180146765E+04  0.00000000000E+00 0. -1.
         24    2    1    2    0    0  0.15806042490E+03 -0.12258469762E+03  0.26849647089E+02  0.21712025711E+03  0.80063702692E+02 0.  0.
         25    2    1    2    0    0  0.36519845772E+02 -0.11489725427E+03  0.27580796445E+03  0.32592705406E+03  0.12499333237E+03 0.  0.
         24    2    1    2    0    0  0.41007252910E+02  0.13585971792E+03  0.48804912595E+03  0.51494355337E+03  0.82676817002E+02 0.  0.
        -13    1    5    5    0    0  0.35873852170E+02  0.10449862955E+02  0.86232081861E+02  0.93979278819E+02  0.00000000000E+00 0.  1.
         14    1    5    5    0    0  0.51334007397E+01  0.12540985496E+03  0.40181704409E+03  0.42096427455E+03  0.00000000000E+00 0. -1.
        -13    1    3    3    0    0  0.13747975898E+03 -0.11657533515E+03  0.48487901023E+02  0.18665896560E+03  0.00000000000E+00 0.  1.
         14    1    3    3    0    0  0.20580665922E+02 -0.60093624691E+01 -0.21638253933E+02  0.30461291508E+02  0.00000000000E+00 0. -1.
          5    1    4    4  501    0 -0.95065013162E+01 -0.68783693140E+02  0.37967066701E+02  0.79278989418E+02  0.47000000000E+01 0.  1.
         -5    1    4    4    0  501  0.46026347088E+02 -0.46113561133E+02  0.23784089775E+03  0.24664806464E+03  0.47000000000E+01 0.  1.
          1    1    1    2  502    0 -0.17515761286E+03  0.15259675904E+03 -0.86817887826E+03  0.89872160588E+03  0.00000000000E+00 0. -1.
          1    1    1    2  503    0 -0.60429910717E+02 -0.50974525067E+02  0.16931294906E+04  0.16949742323E+04  0.00000000000E+00 0. -1.
<mgrwt>
<rscale>  0 0.13445861E+03</rscale>
<asrwt>0</asrwt>
<pdfrwt beam="1">  1        2 0.38730471E+00 0.79058057E+02</pdfrwt>
<pdfrwt beam="2">  1        2 0.14970804E+00 0.22868152E+03</pdfrwt>
<totfact> 0.19866001E+01</totfact>
</mgrwt>
</event>
<event>
13    1  0.1595792E-008  0.1454175E+03  0.7546771E-02  0.1255686E+00
          2   -1    0    0  503    0  0.00000000000E+00  0.00000000000E+00  0.16458159479E+04  0.16458159479E+04  0.00000000000E+00 0. -1.
         -3   -1    0    0    0  501 -0.00000000000E+00 -0.00000000000E+00 -0.65257458488E+03  0.65257458488E+03  0.00000000000E+00 0.  1.
         24    2    1    2    0    0 -0.80261776983E+02 -0.17822073881E+03 -0.61878942160E+02  0.21984825345E+03  0.79370438298E+02 0.  0.
         25    2    1    2    0    0  0.26772271001E+03  0.25759063043E+03  0.70235471927E+03  0.80432906205E+03  0.12495881733E+03 0.  0.
         24    2    1    2    0    0  0.24156570653E+02 -0.34259394602E+02  0.16964697443E+03  0.19268934886E+03  0.81190166922E+02 0.  0.
        -11    1    5    5    0    0  0.64689468879E+01  0.26743671928E+02  0.43864880489E+02  0.51780295503E+02  0.00000000000E+00 0.  1.
         12    1    5    5    0    0  0.17687623765E+02 -0.61003066530E+02  0.12578209394E+03  0.14090905335E+03  0.00000000000E+00 0. -1.
        -11    1    3    3    0    0 -0.70679659913E+02 -0.63293120527E+02 -0.37211129110E+02  0.10191320602E+03  0.00000000000E+00 0.  1.
         12    1    3    3    0    0 -0.95821170697E+01 -0.11492761828E+03 -0.24667813049E+02  0.11793504743E+03  0.00000000000E+00 0. -1.
          5    1    4    4  502    0  0.15138166965E+01  0.58659159543E+02  0.88838650221E+02  0.10657196823E+03  0.47000000000E+01 0. -1.
         -5    1    4    4    0  502  0.26620889331E+03  0.19893147088E+03  0.61351606905E+03  0.69775709382E+03  0.47000000000E+01 0. -1.
          1    1    1    2  503    0 -0.84168296528E+02  0.23218885153E+02  0.61753163692E+03  0.62367358559E+03  0.00000000000E+00 0. -1.
         -4    1    1    2    0  501 -0.12744920715E+03 -0.68329382168E+02 -0.43441302541E+03  0.45785028286E+03  0.00000000000E+00 0.  1.
<mgrwt>
<rscale>  0 0.11267973E+03</rscale>
<asrwt>0</asrwt>
<pdfrwt beam="1">  1        2 0.24203176E+00 0.87312191E+02</pdfrwt>
<pdfrwt beam="2">  1       -3 0.95966851E-01 0.14541750E+03</pdfrwt>
<totfact> 0.84028542E+00</totfact>
</mgrwt>
</event>
<event>
13    1  0.1595792E-008  0.1056258E+03  0.7546771E-02  0.1333995E+00
          2   -1    0    0  502    0  0.00000000000E+00  0.00000000000E+00  0.66051100756E+03  0.66051100756E+03  0.00000000000E+00 0. -1.
          2   -1    0    0  503    0 -0.00000000000E+00 -0.00000000000E+00 -0.17871672357E+04  0.17871672357E+04  0.00000000000E+00 0. -1.
         24    2    1    2    0    0  0.25213360689E+02 -0.88369731098E+02  0.37194664796E+02  0.12729424455E+03  0.79846469401E+02 0.  0.
         25    2    1    2    0    0 -0.12643817390E+03 -0.46543465632E+02 -0.44863695053E+02  0.18918650053E+03  0.12500349930E+03 0.  0.
         24    2    1    2    0    0 -0.45632794091E+02 -0.17990201894E+02  0.74831618319E+02  0.12005879223E+03  0.80052128204E+02 0.  0.
        -11    1    5    5    0    0 -0.61861657294E+02 -0.95934903731E+01  0.25757131196E+02  0.67692905892E+02  0.00000000000E+00 0.  1.
         12    1    5    5    0    0  0.16228863203E+02 -0.83967115210E+01  0.49074487123E+02  0.52365886335E+02  0.00000000000E+00 0. -1.
        -13    1    3    3    0    0  0.22255469353E+02 -0.10207367601E+03  0.22272643181E+02  0.10681952951E+03  0.00000000000E+00 0.  1.
         14    1    3    3    0    0  0.29578913363E+01  0.13703944909E+02  0.14922021615E+02  0.20474715048E+02  0.00000000000E+00 0. -1.
          5    1    4    4  501    0 -0.14483149458E+02 -0.15426024398E+02 -0.67338166692E+02  0.70740671048E+02  0.47000000000E+01 0.  1.
         -5    1    4    4    0  501 -0.11195502444E+03 -0.31117441235E+02  0.22474471639E+02  0.11844582948E+03  0.47000000000E+01 0.  1.
          1    1    1    2  502    0  0.10363096589E+03  0.11420427873E+03  0.39356231787E+03  0.42269763711E+03  0.00000000000E+00 0. -1.
          1    1    1    2  503    0  0.43226641413E+02  0.38699119898E+02 -0.15873811340E+04  0.15884410688E+04  0.00000000000E+00 0. -1.
<mgrwt>
<rscale>  0 0.78283263E+02</rscale>
<asrwt>0</asrwt>
<pdfrwt beam="1">  1        2 0.97133973E-01 0.10562584E+03</pdfrwt>
<pdfrwt beam="2">  1        2 0.26281871E+00 0.58018656E+02</pdfrwt>
<totfact> 0.92561837E+01</totfact>
</mgrwt>
</event>
<event>
13    1  0.1595792E-008  0.6036601E+02  0.7546771E-02  0.1410614E+00
          2   -1    0    0  502    0  0.00000000000E+00  0.00000000000E+00  0.30928094585E+03  0.30928094585E+03  0.00000000000E+00 0. -1.
          2   -1    0    0  503    0 -0.00000000000E+00 -0.00000000000E+00 -0.16724619632E+04  0.16724619632E+04  0.00000000000E+00 0. -1.
         24    2    1    2    0    0 -0.33797668998E+02  0.68800677444E+02 -0.14409971299E+03  0.18210327113E+03  0.80753070698E+02 0.  0.
         25    2    1    2    0    0  0.54175778900E+02  0.67232807052E+02 -0.22840900295E+03  0.27431871588E+03  0.12499927954E+03 0.  0.
         24    2    1    2    0    0 -0.83076467363E+00 -0.44271011689E+02 -0.53316292467E+02  0.10697192768E+03  0.81484683362E+02 0.  0.
        -11    1    3    3    0    0  0.25462866661E+02  0.20825399596E+02 -0.27959171998E+02  0.43171404260E+02  0.00000000000E+00 0.  1.
         12    1    3    3    0    0 -0.59260535659E+02  0.47975277848E+02 -0.11614054099E+03  0.13893186687E+03  0.00000000000E+00 0. -1.
        -11    1    5    5    0    0  0.11049068933E+02 -0.51518046210E+02 -0.85515571458E+00  0.52696511278E+02  0.00000000000E+00 0.  1.
         12    1    5    5    0    0 -0.11879833606E+02  0.72470345216E+01 -0.52461136753E+02  0.54275416399E+02  0.00000000000E+00 0. -1.
          5    1    4    4  501    0 -0.92260698373E+01 -0.24206756927E+02 -0.82441616309E+01  0.27588831918E+02  0.47000000000E+01 0.  1.
         -5    1    4    4    0  501  0.63401848737E+02  0.91439563979E+02 -0.22016484132E+03  0.24672988396E+03  0.47000000000E+01 0.  1.
          1    1    1    2  502    0  0.21155514969E+02 -0.56383834890E+02  0.23609746291E+03  0.24365694048E+03  0.00000000000E+00 0. -1.
          1    1    1    2  503    0 -0.40702860197E+02 -0.35378637916E+02 -0.11734534719E+04  0.11746920539E+04  0.00000000000E+00 0. -1.
<mgrwt>
<rscale>  0 0.57056969E+02</rscale>
<asrwt>0</asrwt>
<pdfrwt beam="1">  1        2 0.45482492E-01 0.60366013E+02</pdfrwt>
<pdfrwt beam="2">  1        2 0.24595029E+00 0.53929313E+02</pdfrwt>
<totfact> 0.23767028E+02</totfact>
</mgrwt>
</event>
<event>
13    1  0.1595792E-008  0.7461490E+02  0.7546771E-02  0.1456576E+00
         -1   -1    0    0    0  501 -0.00000000000E+00  0.00000000000E+00  0.23310106717E+04  0.23310106717E+04  0.00000000000E+00 0.  1.
          2   -1    0    0  503    0  0.00000000000E+00 -0.00000000000E+00 -0.88000613265E+03  0.88000613265E+03  0.00000000000E+00 0. -1.
         24    2    1    2    0    0  0.25902911713E+02  0.11310514691E+02  0.53081635042E+02  0.10033288559E+03  0.80312759724E+02 0.  0.
         25    2    1    2    0    0 -0.53246482560E+01 -0.16242873446E+03 -0.72560564725E+02  0.21751015911E+03  0.12503674701E+03 0.  0.
         24    2    1    2    0    0 -0.18720526000E+01  0.47446426056E+02 -0.14690214829E+03  0.17372819726E+03  0.79665409223E+02 0.  0.
        -13    1    3    3    0    0  0.30235205532E+02 -0.30017860386E+02  0.34456585182E+02  0.54795034977E+02  0.00000000000E+00 0.  1.
         14    1    3    3    0    0 -0.43322938195E+01  0.41328375077E+02  0.18625049860E+02  0.45537850614E+02  0.00000000000E+00 0. -1.
        -13    1    5    5    0    0 -0.29100294512E+02  0.54824541821E+01 -0.16141813348E+02  0.33725992686E+02  0.00000000000E+00 0.  1.
         14    1    5    5    0    0  0.27228241912E+02  0.41963971874E+02 -0.13076033494E+03  0.14000220458E+03  0.00000000000E+00 0. -1.
          5    1    4    4  502    0 -0.13432640443E+02 -0.36221358684E+02  0.34299389534E+02  0.51874471338E+02  0.47000000000E+01 0. -1.
         -5    1    4    4    0  502  0.81079921867E+01 -0.12620737578E+03 -0.10685995426E+03  0.16563568777E+03  0.47000000000E+01 0. -1.
          1    1    1    2  503    0 -0.70157161013E+01  0.30038978549E+02 -0.54995677974E+03  0.55082122334E+03  0.00000000000E+00 0. -1.
         -2    1    1    2    0  501 -0.11690494755E+02  0.73632815168E+02  0.21673423968E+04  0.21686243391E+04  0.00000000000E+00 0.  1.
<mgrwt>
<rscale>  0 0.47975764E+02</rscale>
<asrwt>0</asrwt>
<pdfrwt beam="2">  1        2 0.12941267E+00 0.30847374E+02</pdfrwt>
<pdfrwt beam="1">  1       -1 0.34279569E+00 0.74614905E+02</pdfrwt>
<totfact> 0.10424152E+00</totfact>
</mgrwt>
</event>
<event>
13    1  0.1595792E-008  0.1675536E+03  0.7546771E-02  0.1436452E+00
          2   -1    0    0  502    0  0.00000000000E+00  0.00000000000E+00  0.80029528420E+03  0.80029528420E+03  0.00000000000E+00 0. -1.
          2   -1    0    0  503    0 -0.00000000000E+00 -0.00000000000E+00 -0.21683071906E+04  0.21683071906E+04  0.00000000000E+00 0. -1.
         24    2    1    2    0    0 -0.87081038489E+02  0.48708943971E+02 -0.27781760664E+03  0.30651317241E+03  0.82535045983E+02 0.  0.
         25    2    1    2    0    0 -0.15016046189E+03 -0.89910533155E+02 -0.45892031201E+03  0.50681798377E+03  0.12499819043E+03 0.  0.
         24    2    1    2    0    0 -0.64930319908E+02 -0.53546744230E+02  0.49402608348E+02  0.12714013275E+03  0.81491075486E+02 0.  0.
        -11    1    5    5    0    0 -0.80122520650E+02 -0.58381598416E+02  0.50309494999E+02  0.11117137507E+03  0.00000000000E+00 0.  1.
         12    1    5    5    0    0  0.15192200742E+02  0.48348541857E+01 -0.90688665058E+00  0.15968757678E+02  0.00000000000E+00 0. -1.
        -13    1    3    3    0    0 -0.15002995180E+02 -0.21510168035E+02 -0.85903811383E+02  0.89817826757E+02  0.00000000000E+00 0.  1.
         14    1    3    3    0    0 -0.72078043309E+02  0.70219112006E+02 -0.19191379526E+03  0.21669534565E+03  0.00000000000E+00 0. -1.
          5    1    4    4  501    0 -0.14000669557E+03 -0.24409595687E+02 -0.36540753449E+03  0.39210006302E+03  0.47000000000E+01 0. -1.
         -5    1    4    4    0  501 -0.10153766320E+02 -0.65500937468E+02 -0.93512777524E+02  0.11471792074E+03  0.47000000000E+01 0. -1.
          1    1    1    2  502    0  0.30144332579E+03  0.11067577262E+03  0.63541256101E+03  0.71194545297E+03  0.00000000000E+00 0. -1.
          1    1    1    2  503    0  0.72849449849E+00 -0.15927439203E+02 -0.13160891571E+04  0.13161857329E+04  0.00000000000E+00 0. -1.
<mgrwt>
<rscale>  0 0.51686460E+02</rscale>
<asrwt>0</asrwt>
<pdfrwt beam="1">  1        2 0.11769049E+00 0.16755363E+03</pdfrwt>
<pdfrwt beam="2">  1        2 0.31886870E+00 0.15944091E+02</pdfrwt>
<totfact> 0.57105149E+01</totfact>
</mgrwt>
</event>
<event>
13    1  0.1595792E-008  0.2111183E+03  0.7546771E-02  0.1376432E+00
          2   -1    0    0  503    0  0.00000000000E+00  0.00000000000E+00  0.22474508904E+04  0.22474508904E+04  0.00000000000E+00 0. -1.
         -3   -1    0    0    0  501 -0.00000000000E+00 -0.00000000000E+00 -0.73973197535E+03  0.73973197535E+03  0.00000000000E+00 0.  1.
         24    2    1    2    0    0 -0.15866982916E+03  0.23509280251E+02  0.17530981352E+03  0.25067930124E+03  0.79861006805E+02 0.  0.
         25    2    1    2    0    0 -0.18361320764E+02  0.10022875834E+02  0.21927155604E+03  0.25326101522E+03  0.12499412147E+03 0.  0.
         24    2    1    2    0    0 -0.43218311234E+02  0.22156070065E+02  0.49772601302E+03  0.50673599403E+03  0.81801404225E+02 0.  0.
        -11    1    5    5    0    0 -0.58042481601E+02 -0.82959147400E+01  0.25471123968E+03  0.26137246888E+03  0.00000000000E+00 0.  1.
         12    1    5    5    0    0  0.14824170368E+02  0.30451984805E+02  0.24301477335E+03  0.24536352514E+03  0.00000000000E+00 0. -1.
        -13    1    3    3    0    0 -0.15049370287E+03  0.23826988087E+01  0.12553735837E+03  0.19599403104E+03  0.00000000000E+00 0.  1.
         14    1    3    3    0    0 -0.81761262903E+01  0.21126581442E+02  0.49772455155E+02  0.54685270199E+02  0.00000000000E+00 0. -1.
          5    1    4    4  502    0 -0.61015113370E+01 -0.56240704899E+02  0.75968600299E+02  0.94834400718E+02  0.47000000000E+01 0.  1.
         -5    1    4    4    0  502 -0.12259809427E+02  0.66263580733E+02  0.14330295574E+03  0.15842661450E+03  0.47000000000E+01 0.  1.
          1    1    1    2  503    0  0.83178791052E+01 -0.18480794644E+02  0.12788686114E+04  0.12790291835E+04  0.00000000000E+00 0. -1.
         -4    1    1    2    0  501  0.21193158205E+03 -0.37207431506E+02 -0.66345707900E+03  0.69747737175E+03  0.00000000000E+00 0.  1.
<mgrwt>
<rscale>  0 0.65411068E+02</rscale>
<asrwt>0</asrwt>
<pdfrwt beam="1">  1        2 0.33050748E+00 0.20266398E+02</pdfrwt>
<pdfrwt beam="2">  1       -3 0.10878412E+00 0.21111832E+03</pdfrwt>
<totfact> 0.39292579E+00</totfact>
</mgrwt>
</event>
<event>
13    1  0.1595792E-008  0.1284977E+03  0.7546771E-02  0.1285872E+00
          2   -1    0    0  503    0  0.00000000000E+00  0.00000000000E+00  0.91571344867E+03  0.91571344867E+03  0.00000000000E+00 0. -1.
          2   -1    0    0  502    0 -0.00000000000E+00 -0.00000000000E+00 -0.47051792500E+04  0.47051792500E+04  0.00000000000E+00 0. -1.
         24    2    1    2    0    0  0.89117337517E+02  0.95349264177E+02 -0.23256107042E+03  0.27915207301E+03  0.82509674382E+02 0.  0.
         25    2    1    2    0    0 -0.31372962407E+03  0.10074922512E+02 -0.38916420705E+03  0.51536606496E+03  0.12500247908E+03 0.  0.
         24    2    1    2    0    0  0.40068706959E+02 -0.14937154003E+03 -0.90142059463E+02  0.19600810598E+03  0.79851289750E+02 0.  0.
        -11    1    5    5    0    0  0.86800801668E+01  0.88247599855E+01 -0.10003338060E+02  0.15914991450E+02  0.00000000000E+00 0.  1.
         12    1    5    5    0    0  0.31388626792E+02 -0.15819630002E+03 -0.80138721403E+02  0.18009311453E+03  0.00000000000E+00 0. -1.
        -11    1    3    3    0    0  0.60273752842E+02  0.14083158498E+02 -0.59802113532E+02  0.86067144822E+02  0.00000000000E+00 0.  1.
         12    1    3    3    0    0  0.28843584675E+02  0.81266105679E+02 -0.17275895688E+03  0.19308492819E+03  0.00000000000E+00 0. -1.
          5    1    4    4  501    0 -0.53823353697E+02  0.18849789546E+02 -0.14086673292E+02  0.58930402456E+02  0.47000000000E+01 0.  1.
         -5    1    4    4    0  501 -0.25990627037E+03 -0.87748670347E+01 -0.37507753376E+03  0.45643566250E+03  0.47000000000E+01 0.  1.
          1    1    1    2  502    0  0.71827026727E+02 -0.17038187094E+02 -0.38483373653E+04  0.38490453231E+04  0.00000000000E+00 0. -1.
          1    1    1    2  503    0  0.11271655287E+03  0.60985540440E+02  0.77073890092E+03  0.78132113169E+03  0.00000000000E+00 0. -1.
<mgrwt>
<rscale>  0 0.97394688E+02</rscale>
<asrwt>0</asrwt>
<pdfrwt beam="1">  1        2 0.13466374E+00 0.12849769E+03</pdfrwt>
<pdfrwt beam="2">  1        2 0.69193813E+00 0.73820198E+02</pdfrwt>
<totfact> 0.11874990E+00</totfact>
</mgrwt>
</event>
<event>
13    1  0.1595792E-008  0.1039131E+03  0.7546771E-02  0.1459530E+00
          2   -1    0    0  502    0  0.00000000000E+00  0.00000000000E+00  0.32757066418E+04  0.32757066418E+04  0.00000000000E+00 0. -1.
          2   -1    0    0  503    0 -0.00000000000E+00 -0.00000000000E+00 -0.21626184690E+04  0.21626184690E+04  0.00000000000E+00 0. -1.
         24    2    1    2    0    0  0.35921526348E+03 -0.90283838573E+03  0.38164385586E+02  0.97581741679E+03  0.81304085422E+02 0.  0.
         25    2    1    2    0    0  0.11095895446E+03  0.11172953362E+04 -0.48991882316E+03  0.12313819883E+04  0.12498155893E+03 0.  0.
         24    2    1    2    0    0 -0.37823335024E+03 -0.17274552647E+03  0.16674186184E+02  0.42139677954E+03  0.66300325602E+02 0.  0.
        -11    1    3    3    0    0  0.19099477596E+03 -0.55569124444E+03 -0.52691199098E+01  0.58762192540E+03  0.00000000000E+00 0.  1.
         12    1    3    3    0    0  0.16822048752E+03 -0.34714714129E+03  0.43433505496E+02  0.38819549138E+03  0.00000000000E+00 0. -1.
        -13    1    5    5    0    0 -0.35119680407E+02 -0.38579064134E+02  0.87521634581E+01  0.52899305350E+02  0.00000000000E+00 0.  1.
         14    1    5    5    0    0 -0.34311366983E+03 -0.13416646233E+03  0.79220227262E+01  0.36849747419E+03  0.00000000000E+00 0. -1.
          5    1    4    4  501    0  0.53300429437E+02  0.19052657224E+03 -0.12260988804E+03  0.23280160041E+03  0.47000000000E+01 0.  1.
         -5    1    4    4    0  501  0.57658525024E+02  0.92676876394E+03 -0.36730893512E+03  0.99858038792E+03  0.47000000000E+01 0.  1.
          1    1    1    2  502    0 -0.83601532905E+02 -0.61721787160E+02  0.21775229499E+04  0.21800011451E+04  0.00000000000E+00 0. -1.
          1    1    1    2  503    0 -0.83393347985E+01  0.20010363178E+02 -0.62935452568E+03  0.62972778098E+03  0.00000000000E+00 0. -1.
<mgrwt>
<rscale>  0 0.47462446E+02</rscale>
<asrwt>0</asrwt>
<pdfrwt beam="1">  1        2 0.48172156E+00 0.10391307E+03</pdfrwt>
<pdfrwt beam="2">  1        2 0.31803213E+00 0.21678541E+02</pdfrwt>
<totfact> 0.29253032E+00</totfact>
</mgrwt>
</event>
<event>
13    1  0.1595792E-008  0.6613559E+02  0.7546771E-02  0.1516069E+00
          2   -1    0    0  502    0  0.00000000000E+00  0.00000000000E+00  0.38496716850E+03  0.38496716850E+03  0.00000000000E+00 0. -1.
          2   -1    0    0  503    0 -0.00000000000E+00 -0.00000000000E+00 -0.29567292067E+04  0.29567292067E+04  0.00000000000E+00 0. -1.
         24    2    1    2    0    0 -0.28576364553E+02  0.16527369318E+02 -0.20740452126E+04  0.20758604059E+04  0.80269035379E+02 0.  0.
         25    2    1    2    0    0  0.27277236188E+01  0.80338917937E+02 -0.38290038796E+03  0.41072933648E+03  0.12499639408E+03 0.  0.
         24    2    1    2    0    0 -0.13646596859E+02 -0.48066021077E+02  0.60512585698E+02  0.11350846754E+03  0.82011140626E+02 0.  0.
        -11    1    3    3    0    0  0.20114624184E+02 -0.13999120777E+02 -0.34962031018E+03  0.35047815164E+03  0.00000000000E+00 0.  1.
         12    1    3    3    0    0 -0.48690988736E+02  0.30526490095E+02 -0.17244249025E+04  0.17253822542E+04  0.00000000000E+00 0. -1.
        -13    1    5    5    0    0  0.18821400975E+02 -0.21128026401E+01 -0.11471936574E+02  0.22143044018E+02  0.00000000000E+00 0.  1.
         14    1    5    5    0    0 -0.32467997834E+02 -0.45953218437E+02  0.71984522272E+02  0.91365423519E+02  0.00000000000E+00 0. -1.
          5    1    4    4  501    0  0.16274372018E+02  0.17156700019E+02 -0.18178243974E+01  0.24178544738E+02  0.47000000000E+01 0. -1.
         -5    1    4    4    0  501 -0.13546648399E+02  0.63182217918E+02 -0.38108256356E+03  0.38655079174E+03  0.47000000000E+01 0. -1.
          1    1    1    2  502    0  0.56856752710E+02 -0.33803989120E+02  0.27897782190E+03  0.28671244326E+03  0.00000000000E+00 0. -1.
          1    1    1    2  503    0 -0.17361514917E+02 -0.14996277058E+02 -0.45430684519E+03  0.45488572204E+03  0.00000000000E+00 0. -1.
<mgrwt>
<rscale>  0 0.38951855E+02</rscale>
<asrwt>0</asrwt>
<pdfrwt beam="1">  1        2 0.56612818E-01 0.66135595E+02</pdfrwt>
<pdfrwt beam="2">  1        2 0.43481313E+00 0.22941459E+02</pdfrwt>
<totfact> 0.53286348E+01</totfact>
</mgrwt>
</event>
<event>
13    1  0.1595792E-008  0.1175405E+03  0.7546771E-02  0.1272151E+00
          2   -1    0    0  502    0  0.00000000000E+00  0.00000000000E+00  0.17888481748E+04  0.17888481748E+04  0.00000000000E+00 0. -1.
          2   -1    0    0  503    0 -0.00000000000E+00 -0.00000000000E+00 -0.14009706891E+04  0.14009706891E+04  0.00000000000E+00 0. -1.
         24    2    1    2    0    0  0.30978707008E+02  0.70864726244E+02 -0.25584679020E+03  0.27915596470E+03  0.80554223119E+02 0.  0.
         25    2    1    2    0    0  0.51484650829E+03 -0.13329322508E+03 -0.81688156450E+02  0.55238805534E+03  0.12500239127E+03 0.  0.
         24    2    1    2    0    0 -0.32110260546E+03  0.10817977951E+03 -0.20747485326E+03  0.40587865062E+03  0.82957316531E+02 0.  0.
        -11    1    5    5    0    0 -0.13955725403E+03  0.21733248105E+02 -0.12477228149E+03  0.18845870491E+03  0.00000000000E+00 0.  1.
         12    1    5    5    0    0 -0.18154535143E+03  0.86446531408E+02 -0.82702571765E+02  0.21741994571E+03  0.00000000000E+00 0. -1.
        -11    1    3    3    0    0  0.48817269161E+01  0.26512359844E+02 -0.20516439503E+03  0.20692792337E+03  0.00000000000E+00 0.  1.
         12    1    3    3    0    0  0.26096980092E+02  0.44352366400E+02 -0.50682395170E+02  0.72228041337E+02  0.00000000000E+00 0. -1.
          5    1    4    4  501    0  0.35534828753E+03 -0.90988894929E+02  0.29945532183E+01  0.36685479662E+03  0.47000000000E+01 0.  1.
         -5    1    4    4    0  501  0.15949822076E+03 -0.42304330149E+02 -0.84682709668E+02  0.18553325872E+03  0.47000000000E+01 0.  1.
          1    1    1    2  502    0 -0.89261625431E+02 -0.22182157852E+02  0.14318675975E+04  0.14348186306E+04  0.00000000000E+00 0. -1.
          1    1    1    2  503    0 -0.13546098441E+03 -0.23569122827E+02 -0.49898031181E+03  0.51757756272E+03  0.00000000000E+00 0. -1.
<mgrwt>
<rscale>  0 0.10397582E+03</rscale>
<asrwt>0</asrwt>
<pdfrwt beam="1">  1        2 0.26306591E+00 0.91976551E+02</pdfrwt>
<pdfrwt beam="2">  1        2 0.20602510E+00 0.11754051E+03</pdfrwt>
<totfact> 0.32245227E+01</totfact>
</mgrwt>
</event>
<event>
13    1  0.1595792E-008  0.4976996E+02  0.7546771E-02  0.1460223E+00
          2   -1    0    0  502    0  0.00000000000E+00  0.00000000000E+00  0.40172748497E+04  0.40172748497E+04  0.00000000000E+00 0. -1.
          2   -1    0    0  503    0 -0.00000000000E+00 -0.00000000000E+00 -0.98225543795E+03  0.98225543795E+03  0.00000000000E+00 0. -1.
         24    2    1    2    0    0 -0.11064540537E+03  0.23935761361E+02 -0.25671557981E+03  0.29177357688E+03  0.80084985172E+02 0.  0.
         25    2    1    2    0    0  0.10422517180E+03  0.11365164077E+03  0.23757798284E+03  0.30959328840E+03  0.12500049762E+03 0.  0.
         24    2    1    2    0    0  0.54979611968E+02 -0.65413143761E+02  0.20623578525E+03  0.23758641317E+03  0.81317079986E+02 0.  0.
        -13    1    3    3    0    0 -0.36018047495E+02  0.43596641408E+02 -0.71769893240E+02  0.91372230262E+02  0.00000000000E+00 0.  1.
         14    1    3    3    0    0 -0.74627357873E+02 -0.19660880047E+02 -0.18494568657E+03  0.20040134662E+03  0.00000000000E+00 0. -1.
        -13    1    5    5    0    0  0.41060703320E+02 -0.61616864697E+02  0.21000381551E+03  0.22267514882E+03  0.00000000000E+00 0.  1.
         14    1    5    5    0    0  0.13918908649E+02 -0.37962790639E+01 -0.37680302573E+01  0.14911264357E+02  0.00000000000E+00 0. -1.
          5    1    4    4  501    0  0.12791458691E+02  0.10201502821E+03  0.97002152493E+02  0.14142911646E+03  0.47000000000E+01 0.  1.
         -5    1    4    4    0  501  0.91433713110E+02  0.11636612564E+02  0.14057583034E+03  0.16816417193E+03  0.47000000000E+01 0.  1.
          1    1    1    2  502    0 -0.38412194528E+02 -0.23507463584E+02  0.35031627989E+04  0.35034522536E+04  0.00000000000E+00 0. -1.
          1    1    1    2  503    0 -0.10147183874E+02 -0.48666794787E+02 -0.65524157544E+03  0.65712475561E+03  0.00000000000E+00 0. -1.
<mgrwt>
<rscale>  0 0.47343009E+02</rscale>
<asrwt>0</asrwt>
<pdfrwt beam="1">  1        2 0.59077570E+00 0.45034404E+02</pdfrwt>
<pdfrwt beam="2">  1        2 0.14444933E+00 0.49769960E+02</pdfrwt>
<totfact> 0.41485650E+00</totfact>
</mgrwt>
</event>
<event>
13    1  0.1595792E-008  0.3766689E+02  0.7546771E-02  0.1528843E+00
          2   -1    0    0  502    0  0.00000000000E+00  0.00000000000E+00  0.32716235660E+04  0.32716235660E+04  0.00000000000E+00 0. -1.
          2   -1    0    0  503    0 -0.00000000000E+00 -0.00000000000E+00 -0.21421849601E+04  0.21421849601E+04  0.00000000000E+00 0. -1.
         24    2    1    2    0    0  0.66556777437E+02  0.45379029884E+02  0.17612568369E+02  0.11069127594E+03  0.73846428685E+02 0.  0.
         25    2    1    2    0    0 -0.10520803599E+03 -0.22204954237E+03 -0.17542352877E+03  0.32676171584E+03  0.12500029756E+03 0.  0.
         24    2    1    2    0    0  0.39294441555E+02  0.17694430744E+03  0.86059860076E+03  0.88528032680E+03  0.10118282621E+03 0.  0.
        -11    1    5    5    0    0  0.19937257009E+02  0.18338305879E+03  0.80969087672E+03  0.83043732834E+03  0.00000000000E+00 0.  1.
         12    1    5    5    0    0  0.19357184546E+02 -0.64387513526E+01  0.50907724039E+02  0.54842998454E+02  0.00000000000E+00 0. -1.
        -13    1    3    3    0    0  0.91072106498E+01 -0.19784639912E+02 -0.11714975140E+01  0.21811594822E+02  0.00000000000E+00 0.  1.
         14    1    3    3    0    0  0.57449566787E+02  0.65163669796E+02  0.18784065883E+02  0.88879681122E+02  0.00000000000E+00 0. -1.
          5    1    4    4  501    0  0.27051915713E+02 -0.23097607511E+02 -0.31978805384E+02  0.48062871431E+02  0.47000000000E+01 0. -1.
         -5    1    4    4    0  501 -0.13225995171E+03 -0.19895193486E+03 -0.14344472338E+03  0.27869884441E+03  0.47000000000E+01 0. -1.
          1    1    1    2  502    0  0.36460987175E+02  0.62537120279E+01  0.22585179341E+04  0.22588208807E+04  0.00000000000E+00 0. -1.
          1    1    1    2  503    0 -0.37104170172E+02 -0.65275069813E+01 -0.18318669686E+04  0.18322543269E+04  0.00000000000E+00 0. -1.
<mgrwt>
<rscale>  0 0.37328634E+02</rscale>
<asrwt>0</asrwt>
<pdfrwt beam="1">  1        2 0.48112111E+00 0.36993412E+02</pdfrwt>
<pdfrwt beam="2">  1        2 0.31502720E+00 0.37666894E+02</pdfrwt>
<totfact> 0.33635055E+00</totfact>
</mgrwt>
</event>
<event>
13    1  0.1595792E-008  0.1193404E+03  0.7546771E-02  0.1347235E+00
          2   -1    0    0  503    0  0.00000000000E+00  0.00000000000E+00  0.20560921436E+04  0.20560921436E+04  0.00000000000E+00 0. -1.
          2   -1    0    0  502    0 -0.00000000000E+00 -0.00000000000E+00 -0.25010136709E+04  0.25010136709E+04  0.00000000000E+00 0. -1.
         24    2    1    2    0    0  0.88108099156E+02  0.81539808452E+01 -0.28133060718E+03  0.30571634928E+03  0.80536023888E+02 0.  0.
         25    2    1    2    0    0 -0.71692296962E+02 -0.53262322417E+02 -0.15767896706E+03  0.22014825567E+03  0.12500374951E+03 0.  0.
         24    2    1    2    0    0  0.88200449981E+02  0.99766726874E+02 -0.22470856558E+03  0.27252692230E+03  0.77744869725E+02 0.  0.
        -11    1    3    3    0    0  0.95291035814E+02  0.17695994832E+01 -0.28028923910E+03  0.29604994603E+03  0.00000000000E+00 0.  1.
         12    1    3    3    0    0 -0.71829366580E+01  0.63843813620E+01 -0.10413680784E+01  0.96664032547E+01  0.00000000000E+00 0. -1.
        -13    1    5    5    0    0  0.52240482791E+02  0.10535810567E+03 -0.17744974018E+03  0.21287979886E+03  0.00000000000E+00 0.  1.
         14    1    5    5    0    0  0.35959967190E+02 -0.55913787970E+01 -0.47258825401E+02  0.59647123446E+02  0.00000000000E+00 0. -1.
          5    1    4    4  501    0  0.93252195937E+01 -0.69664627800E+02 -0.64667320200E+02  0.95624643209E+02  0.47000000000E+01 0.  1.
         -5    1    4    4    0  501 -0.81017516555E+02  0.16402305383E+02 -0.93011646855E+02  0.12452361247E+03  0.47000000000E+01 0.  1.
          1    1    1    2  502    0  0.14228496480E+02 -0.43524983718E+02 -0.17678710214E+04  0.17684639727E+04  0.00000000000E+00 0. -1.
          1    1    1    2  503    0 -0.11884474865E+03 -0.11133401583E+02  0.19866676339E+04  0.19902503145E+04  0.00000000000E+00 0. -1.
<mgrwt>
<rscale>  0 0.73924250E+02</rscale>
<asrwt>0</asrwt>
<pdfrwt beam="1">  1        2 0.30236649E+00 0.11934044E+03</pdfrwt>
<pdfrwt beam="2">  1        2 0.36779613E+00 0.45791640E+02</pdfrwt>
<totfact> 0.76418448E+00</totfact>
</mgrwt>
</event>
<event>
13    1  0.1595792E-008  0.1629310E+03  0.7546771E-02  0.1251137E+00
          2   -1    0    0  503    0  0.00000000000E+00  0.00000000000E+00  0.28126199978E+04  0.28126199978E+04  0.00000000000E+00 0. -1.
         -1   -1    0    0    0  501 -0.00000000000E+00 -0.00000000000E+00 -0.27562123377E+04  0.27562123377E+04  0.00000000000E+00 0.  1.
         24    2    1    2    0    0 -0.46128945864E+02 -0.20441063425E+03 -0.39881778038E+03  0.45765288532E+03  0.80491952734E+02 0.  0.
         25    2    1    2    0    0  0.17360574256E+03 -0.81735016396E+02  0.93842823043E+02  0.24749115648E+03  0.12500332133E+03 0.  0.
         24    2    1    2    0    0  0.82482306622E+02  0.17176638060E+03  0.46854390344E+03  0.51620483044E+03  0.10308742460E+03 0.  0.
        -11    1    3    3    0    0  0.10360109832E+02 -0.30303877632E+02 -0.11939065544E+03  0.12361142941E+03  0.00000000000E+00 0.  1.
         12    1    3    3    0    0 -0.56489055696E+02 -0.17410675661E+03 -0.27942712495E+03  0.33404145591E+03  0.00000000000E+00 0. -1.
        -13    1    5    5    0    0  0.72069904862E+02  0.36156807656E+02  0.17313197109E+03  0.19098708161E+03  0.00000000000E+00 0.  1.
         14    1    5    5    0    0  0.10412401761E+02  0.13560957294E+03  0.29541193234E+03  0.32521774883E+03  0.00000000000E+00 0. -1.
          5    1    4    4  502    0  0.51180397301E+01 -0.53476461061E+02  0.31628982145E+01  0.54018701793E+02  0.47000000000E+01 0.  1.
         -5    1    4    4    0  502  0.16848770283E+03 -0.28258555336E+02  0.90679924829E+02  0.19347245469E+03  0.47000000000E+01 0.  1.
          1    1    1    2  503    0 -0.13027614145E+03  0.97124815165E+02  0.21162992882E+04  0.21225286287E+04  0.00000000000E+00 0. -1.
         -2    1    1    2    0  501 -0.79682961867E+02  0.17254454882E+02 -0.22234605742E+04  0.22249548345E+04  0.00000000000E+00 0.  1.
<mgrwt>
<rscale>  0 0.11525499E+03</rscale>
<asrwt>0</asrwt>
<pdfrwt beam="1">  1        2 0.41362059E+00 0.16293098E+03</pdfrwt>
<pdfrwt beam="2">  1       -1 0.40532534E+00 0.81529692E+02</pdfrwt>
<totfact> 0.38366363E-02</totfact>
</mgrwt>
</event>
<event>
13    1  0.1595792E-008  0.8293972E+02  0.7546771E-02  0.1387720E+00
          2   -1    0    0  502    0  0.00000000000E+00  0.00000000000E+00  0.82640405136E+03  0.82640405136E+03  0.00000000000E+00 0. -1.
          2   -1    0    0  503    0 -0.00000000000E+00 -0.00000000000E+00 -0.11849666267E+04  0.11849666267E+04  0.00000000000E+00 0. -1.
         24    2    1    2    0    0  0.71269974787E+02  0.29103920167E+02  0.16979749440E+02  0.11100943738E+03  0.78155843170E+02 0.  0.
         25    2    1    2    0    0  0.10311027277E+03  0.61455497832E+02  0.37936234926E+02  0.17741195849E+03  0.12500935377E+03 0.  0.
         24    2    1    2    0    0 -0.96347386861E+02 -0.87536432407E+02  0.22270993886E+03  0.26986394292E+03  0.79255188271E+02 0.  0.
        -11    1    3    3    0    0 -0.11808194915E+02  0.18482248534E+02  0.16173990236E+02  0.27251145631E+02  0.00000000000E+00 0.  1.
         12    1    3    3    0    0  0.83078169702E+02  0.10621671633E+02  0.80575920374E+00  0.83758291752E+02  0.00000000000E+00 0. -1.
        -13    1    5    5    0    0 -0.79432486750E+02 -0.10159326926E+03  0.17554082195E+03  0.21781940336E+03  0.00000000000E+00 0.  1.
         14    1    5    5    0    0 -0.16914900111E+02  0.14056836848E+02  0.47169116912E+02  0.52044539562E+02  0.00000000000E+00 0. -1.
          5    1    4    4  501    0  0.43359407555E+02  0.30586006529E+02  0.81339776736E+02  0.97230608856E+02  0.47000000000E+01 0.  1.
         -5    1    4    4    0  501  0.59750865211E+02  0.30869491303E+02 -0.43403541811E+02  0.80181349630E+02  0.47000000000E+01 0.  1.
          1    1    1    2  502    0 -0.71218302432E+02  0.43544542661E+02  0.40364557056E+03  0.41218675431E+03  0.00000000000E+00 0. -1.
          1    1    1    2  503    0 -0.68145582603E+01 -0.46567528253E+02 -0.10398340691E+04  0.10408985850E+04  0.00000000000E+00 0. -1.
<mgrwt>
<rscale>  0 0.62477464E+02</rscale>
<asrwt>0</asrwt>
<pdfrwt beam="1">  1        2 0.12153001E+00 0.82939723E+02</pdfrwt>
<pdfrwt beam="2">  1        2 0.17425980E+00 0.47063499E+02</pdfrwt>
<totfact> 0.14256553E+02</totfact>
</mgrwt>
</event>
<event>
13    1  0.1595792E-008  0.1571449E+03  0.7546771E-02  0.1419541E+00
          2   -1    0    0  502    0  0.00000000000E+00  0.00000000000E+00  0.29149858298E+04  0.29149858298E+04  0.00000000000E+00 0. -1.
          2   -1    0    0  503    0 -0.00000000000E+00 -0.00000000000E+00 -0.22387938887E+04  0.22387938887E+04  0.00000000000E+00 0. -1.
         24    2    1    2    0    0  0.14253530424E+03 -0.42749279646E+02 -0.14584261786E+04  0.14681725100E+04  0.79873568135E+02 0.  0.
         25    2    1    2    0    0 -0.89705037741E+01  0.25600309375E+03 -0.19381233512E+03  0.34468631055E+03  0.12500950957E+03 0.  0.
         24    2    1    2    0    0  0.61841281402E+01 -0.14037928601E+03  0.53760400786E+03  0.56154415873E+03  0.81050512364E+02 0.  0.
        -13    1    3    3    0    0  0.96972946101E+02  0.95308159248E+01 -0.73517053451E+03  0.74159982708E+03  0.00000000000E+00 0.  1.
         14    1    3    3    0    0  0.45562358138E+02 -0.52280095571E+02 -0.72325564406E+03  0.72657268290E+03  0.00000000000E+00 0. -1.
        -13    1    5    5    0    0  0.34769539599E+02 -0.12070133523E+03  0.45317902875E+03  0.47026478213E+03  0.00000000000E+00 0.  1.
         14    1    5    5    0    0 -0.28585411458E+02 -0.19677950780E+02  0.84424979102E+02  0.91279376595E+02  0.00000000000E+00 0. -1.
          5    1    4    4  501    0  0.53863591033E+02  0.70119948488E+02 -0.66561141001E+02  0.11077260088E+03  0.47000000000E+01 0. -1.
         -5    1    4    4    0  501 -0.62834094807E+02  0.18588314526E+03 -0.12725119412E+03  0.23391370966E+03  0.47000000000E+01 0. -1.
          1    1    1    2  502    0 -0.14719445280E+03 -0.55033305396E+02  0.22822095666E+04  0.22876134677E+04  0.00000000000E+00 0. -1.
          1    1    1    2  503    0  0.74455241900E+01 -0.17841222698E+02 -0.49138311966E+03  0.49176327165E+03  0.00000000000E+00 0. -1.
<mgrwt>
<rscale>  0 0.55118071E+02</rscale>
<asrwt>0</asrwt>
<pdfrwt beam="1">  1        2 0.42867439E+00 0.15714490E+03</pdfrwt>
<pdfrwt beam="2">  1        2 0.32923440E+00 0.19332487E+02</pdfrwt>
<totfact> 0.40658150E+00</totfact>
</mgrwt>
</event>
<event>
13    1  0.1595792E-008  0.4234414E+02  0.7546771E-02  0.1516954E+00
          2   -1    0    0  503    0  0.00000000000E+00  0.00000000000E+00  0.11606933432E+04  0.11606933432E+04  0.00000000000E+00 0. -1.
         -3   -1    0    0    0  501 -0.00000000000E+00 -0.00000000000E+00 -0.12456075530E+04  0.12456075530E+04  0.00000000000E+00 0.  1.
         24    2    1    2    0    0 -0.27998337500E+02 -0.11978402721E+02 -0.32122777324E+02  0.95545304489E+02  0.84673746536E+02 0.  0.
         25    2    1    2    0    0  0.23567907875E+03  0.25271212152E+03 -0.60654869479E+03  0.70917901496E+03  0.12500204635E+03 0.  0.
         24    2    1    2    0    0 -0.13931749769E+03 -0.23055304517E+03  0.43432122134E+03  0.51677987830E+03  0.76566621407E+02 0.  0.
        -13    1    5    5    0    0 -0.11737687320E+03 -0.22957677023E+03  0.39412034685E+03  0.47097098805E+03  0.00000000000E+00 0.  1.
         14    1    5    5    0    0 -0.21940624484E+02 -0.97627493689E+00  0.40200874491E+02  0.45808890243E+02  0.00000000000E+00 0. -1.
        -13    1    3    3    0    0 -0.61921046308E+01  0.36127775293E+02 -0.18194899446E+02  0.40922031636E+02  0.00000000000E+00 0.  1.
         14    1    3    3    0    0 -0.21806232870E+02 -0.48106178013E+02 -0.13927877878E+02  0.54623272853E+02  0.00000000000E+00 0. -1.
          5    1    4    4  502    0  0.15159425267E+03  0.17904413564E+03 -0.28762834419E+03  0.37120045034E+03  0.47000000000E+01 0. -1.
         -5    1    4    4    0  502  0.84084826089E+02  0.73667985876E+02 -0.31892035060E+03  0.33797856462E+03  0.47000000000E+01 0. -1.
          1    1    1    2  503    0 -0.33089222553E+02  0.13184161881E+02  0.60066056332E+03  0.60171573945E+03  0.00000000000E+00 0. -1.
         -4    1    1    2    0  501 -0.35274021014E+02 -0.23364835513E+02 -0.48122452230E+03  0.48308095901E+03  0.00000000000E+00 0.  1.
<mgrwt>
<rscale>  0 0.38836314E+02</rscale>
<asrwt>0</asrwt>
<pdfrwt beam="1">  1        2 0.17069020E+00 0.35619079E+02</pdfrwt>
<pdfrwt beam="2">  1       -3 0.18317758E+00 0.42344140E+02</pdfrwt>
<totfact> 0.33173627E+00</totfact>
</mgrwt>
</event>
<event>
13    1  0.1595792E-008  0.1279888E+03  0.7546771E-02  0.1327994E+00
          2   -1    0    0  503    0  0.00000000000E+00  0.00000000000E+00  0.24654879132E+04  0.24654879132E+04  0.00000000000E+00 0. -1.
         -1   -1    0    0    0  501 -0.00000000000E+00 -0.00000000000E+00 -0.78562428547E+03  0.78562428547E+03  0.00000000000E+00 0.  1.
         24    2    1    2    0    0  0.95411586991E+01 -0.35098949206E+02  0.50279788233E+02  0.10148411981E+03  0.80299436631E+02 0.  0.
         25    2    1    2    0    0 -0.11033262479E+03 -0.89113822273E+02  0.87073363043E+03  0.89102033271E+03  0.12500246688E+03 0.  0.
         24    2    1    2    0    0  0.14143718850E+02 -0.95488765909E+01  0.20913483480E+03  0.22484401298E+03  0.80785055667E+02 0.  0.
        -13    1    3    3    0    0  0.41824986895E+02 -0.23261039253E+01  0.27861513673E+02  0.50309086976E+02  0.00000000000E+00 0.  1.
         14    1    3    3    0    0 -0.32283828196E+02 -0.32772845281E+02  0.22418274560E+02  0.51175032829E+02  0.00000000000E+00 0. -1.
        -13    1    5    5    0    0  0.41227892423E+02  0.15651542410E+02  0.92332924661E+02  0.10232340333E+03  0.00000000000E+00 0.  1.
         14    1    5    5    0    0 -0.27084173573E+02 -0.25200419001E+02  0.11680191014E+03  0.12252060964E+03  0.00000000000E+00 0. -1.
          5    1    4    4  502    0 -0.53636572117E+02 -0.97847133603E+02  0.73718162914E+03  0.74559358082E+03  0.47000000000E+01 0.  1.
         -5    1    4    4    0  502 -0.56696052677E+02  0.87333113301E+01  0.13355200129E+03  0.14542675189E+03  0.47000000000E+01 0.  1.
          1    1    1    2  503    0  0.49189454325E+02  0.11309051470E+02  0.12857160369E+04  0.12867063475E+04  0.00000000000E+00 0. -1.
         -2    1    1    2    0  501  0.37458292921E+02  0.12245259660E+03 -0.73600066264E+03  0.74705738570E+03  0.00000000000E+00 0.  1.
<mgrwt>
<rscale>  0 0.80373790E+02</rscale>
<asrwt>0</asrwt>
<pdfrwt beam="1">  1        2 0.36257175E+00 0.50472736E+02</pdfrwt>
<pdfrwt beam="2">  1       -1 0.11553298E+00 0.12798882E+03</pdfrwt>
<totfact> 0.51662565E+00</totfact>
</mgrwt>
</event>
<event>
13    1  0.1595792E-008  0.1235138E+03  0.7546771E-02  0.1285897E+00
          2   -1    0    0  502    0  0.00000000000E+00  0.00000000000E+00  0.18784825246E+04  0.18784825246E+04  0.00000000000E+00 0. -1.
          2   -1    0    0  503    0 -0.00000000000E+00 -0.00000000000E+00 -0.13731095263E+04  0.13731095263E+04  0.00000000000E+00 0. -1.
         24    2    1    2    0    0  0.51424589287E+02 -0.16991890817E+03 -0.18967223949E+02  0.19538436733E+03  0.79362281200E+02 0.  0.
         25    2    1    2    0    0  0.13123053721E+03  0.19999820790E+03  0.23207506943E+03  0.35595136409E+03  0.12498719408E+03 0.  0.
         24    2    1    2    0    0  0.17165857465E+02  0.48174329783E+01  0.17230426169E+03  0.19094686045E+03  0.80337230452E+02 0.  0.
        -11    1    3    3    0    0 -0.10894635354E+02 -0.10006050276E+03 -0.54657249575E+01  0.10080015596E+03  0.00000000000E+00 0.  1.
         12    1    3    3    0    0  0.62319224641E+02 -0.69858405407E+02 -0.13501498992E+02  0.94584211372E+02  0.00000000000E+00 0. -1.
        -13    1    5    5    0    0 -0.28151990812E+02 -0.13998696008E+02  0.48791162971E+02  0.58043739203E+02  0.00000000000E+00 0.  1.
         14    1    5    5    0    0  0.45317848277E+02  0.18816128986E+02  0.12351309871E+03  0.13290312124E+03  0.00000000000E+00 0. -1.
          5    1    4    4  501    0  0.10707389832E+03  0.58822549870E+02  0.75474587606E+02  0.14367816622E+03  0.47000000000E+01 0. -1.
         -5    1    4    4    0  501  0.24156638891E+02  0.14117565803E+03  0.15660048182E+03  0.21227319786E+03  0.47000000000E+01 0. -1.
          1    1    1    2  502    0 -0.76808937296E+02 -0.36807762836E+02  0.13100813080E+04  0.13128470809E+04  0.00000000000E+00 0. -1.
          1    1    1    2  503    0 -0.12301204667E+03  0.19110301235E+01 -0.11901204168E+04  0.11964623781E+04  0.00000000000E+00 0. -1.
<mgrwt>
<rscale>  0 0.97383245E+02</rscale>
<asrwt>0</asrwt>
<pdfrwt beam="1">  1        2 0.27624743E+00 0.76780879E+02</pdfrwt>
<pdfrwt beam="2">  1        2 0.20192787E+00 0.12351378E+03</pdfrwt>
<totfact> 0.30615553E+01</totfact>
</mgrwt>
</event>
<event>
13    1  0.1595792E-008  0.1108270E+03  0.7546771E-02  0.1361086E+00
          2   -1    0    0  502    0  0.00000000000E+00  0.00000000000E+00  0.10525833586E+04  0.10525833586E+04  0.00000000000E+00 0. -1.
          2   -1    0    0  503    0 -0.00000000000E+00 -0.00000000000E+00 -0.11000645760E+04  0.11000645760E+04  0.00000000000E+00 0. -1.
         24    2    1    2    0    0 -0.32469792783E+02  0.57629708877E+02 -0.16375042056E+03  0.19358586003E+03  0.79283126707E+02 0.  0.
         25    2    1    2    0    0 -0.41036137773E+02  0.10634812024E+03 -0.31414600532E+03  0.35680050213E+03  0.12499999351E+03 0.  0.
         24    2    1    2    0    0 -0.23017681681E+02 -0.16137206981E+02  0.55445957148E+02  0.99987143692E+02  0.78313163776E+02 0.  0.
        -13    1    5    5    0    0  0.15656652267E+02 -0.34655702734E+02  0.37799788966E+02  0.53618770389E+02  0.00000000000E+00 0.  1.
         14    1    5    5    0    0 -0.38674333948E+02  0.18518495753E+02  0.17646168182E+02  0.46368373303E+02  0.00000000000E+00 0. -1.
        -13    1    3    3    0    0  0.92606583806E+01  0.41153894182E+02 -0.28041479067E+02  0.50653009271E+02  0.00000000000E+00 0.  1.
         14    1    3    3    0    0 -0.41730451163E+02  0.16475814695E+02 -0.13570894149E+03  0.14293285076E+03  0.00000000000E+00 0. -1.
          5    1    4    4  501    0 -0.91981106244E+01  0.25338452578E+02 -0.24229844987E+03  0.24383861718E+03  0.47000000000E+01 0. -1.
         -5    1    4    4    0  501 -0.31838027148E+02  0.81009667658E+02 -0.71847555457E+02  0.11296188495E+03  0.47000000000E+01 0. -1.
          1    1    1    2  502    0  0.10957723851E+03 -0.10598291174E+03  0.93156418482E+03  0.94395517861E+03  0.00000000000E+00 0. -1.
          1    1    1    2  503    0 -0.13053626272E+02 -0.41857710397E+02 -0.55659493351E+03  0.55831925015E+03  0.00000000000E+00 0. -1.
<mgrwt>
<rscale>  0 0.69708779E+02</rscale>
<asrwt>0</asrwt>
<pdfrwt beam="1">  1        2 0.15479167E+00 0.11082704E+03</pdfrwt>
<pdfrwt beam="2">  1        2 0.16177420E+00 0.43845924E+02</pdfrwt>
<totfact> 0.11470615E+02</totfact>
</mgrwt>
</event>
<event>
13    1  0.1595792E-008  0.1101401E+03  0.7546771E-02  0.1397487E+00
          2   -1    0    0  502    0  0.00000000000E+00  0.00000000000E+00  0.12478036890E+04  0.12478036890E+04  0.00000000000E+00 0. -1.
          2   -1    0    0  503    0 -0.00000000000E+00 -0.00000000000E+00 -0.24034118602E+04  0.24034118602E+04  0.00000000000E+00 0. -1.
         24    2    1    2    0    0 -0.11479789193E+03 -0.10012773794E+03 -0.70239184414E+03  0.72360108353E+03  0.83905336405E+02 0.  0.
         25    2    1    2    0    0  0.27250268862E+02 -0.22786731564E+02 -0.19353637848E+03  0.23311880136E+03  0.12500493377E+03 0.  0.
         24    2    1    2    0    0  0.30419051810E+01 -0.33306045472E+02  0.43144002153E+02  0.96704453808E+02  0.79823559256E+02 0.  0.
        -11    1    5    5    0    0 -0.31573611118E+02 -0.27271355481E+02  0.86429589578E+00  0.41729686749E+02  0.00000000000E+00 0.  1.
         12    1    5    5    0    0  0.34615516299E+02 -0.60346899910E+01  0.42279706257E+02  0.54974767058E+02  0.00000000000E+00 0. -1.
        -13    1    3    3    0    0 -0.49446107931E+01  0.38093311511E+01 -0.12894240131E+01  0.63736013367E+01  0.00000000000E+00 0.  1.
         14    1    3    3    0    0 -0.10985328114E+03 -0.10393706909E+03 -0.70110242013E+03  0.71722748219E+03  0.00000000000E+00 0. -1.
          5    1    4    4  501    0 -0.10702403839E+02  0.21015570708E+02 -0.16782718528E+03  0.16954129226E+03  0.47000000000E+01 0.  1.
         -5    1    4    4    0  501  0.37952672701E+02 -0.43802302273E+02 -0.25709193199E+02  0.63577509109E+02  0.47000000000E+01 0.  1.
          1    1    1    2  502    0  0.52119943477E+02  0.16125907271E+03  0.11410392583E+04  0.11535560524E+04  0.00000000000E+00 0. -1.
          1    1    1    2  503    0  0.32385774415E+02 -0.50385577277E+01 -0.14438632090E+04  0.14442351581E+04  0.00000000000E+00 0. -1.
<mgrwt>
<rscale>  0 0.60082313E+02</rscale>
<asrwt>0</asrwt>
<pdfrwt beam="1">  1        2 0.18350054E+00 0.11014012E+03</pdfrwt>
<pdfrwt beam="2">  1        2 0.35344292E+00 0.32775379E+02</pdfrwt>
<totfact> 0.22550711E+01</totfact>
</mgrwt>
</event>
<event>
13    1  0.1595792E-008  0.8435855E+02  0.7546771E-02  0.1430382E+00
          2   -1    0    0  502    0  0.00000000000E+00  0.00000000000E+00  0.35885928456E+04  0.35885928456E+04  0.00000000000E+00 0. -1.
          2   -1    0    0  503    0 -0.00000000000E+00 -0.00000000000E+00 -0.21576894504E+04  0.21576894504E+04  0.00000000000E+00 0. -1.
         24    2    1    2    0    0  0.62720846545E+03  0.21547521815E+02 -0.10374748401E+03  0.64359540245E+03  0.97962986797E+02 0.  0.
         25    2    1    2    0    0 -0.53130501188E+03  0.68383516988E+03 -0.33777641102E+03  0.93788725916E+03  0.12499620736E+03 0.  0.
         24    2    1    2    0    0 -0.14715915366E+03 -0.71602900085E+03  0.24786908128E+04  0.25854952317E+04  0.80771910126E+02 0.  0.
        -13    1    3    3    0    0  0.24793653091E+03  0.50907211436E+02 -0.64302836365E+02  0.26114923378E+03  0.00000000000E+00 0.  1.
         14    1    3    3    0    0  0.37927193454E+03 -0.29359689621E+02 -0.39444647649E+02  0.38244616867E+03  0.00000000000E+00 0. -1.
        -13    1    5    5    0    0 -0.28680487690E+02 -0.28448880886E+03  0.87476163312E+03  0.92030667037E+03  0.00000000000E+00 0.  1.
         14    1    5    5    0    0 -0.11847866597E+03 -0.43154019199E+03  0.16039291796E+04  0.16651885614E+04  0.00000000000E+00 0. -1.
          5    1    4    4  501    0 -0.18105302851E+03  0.14962964909E+03 -0.69112290348E+02  0.24488329811E+03  0.47000000000E+01 0. -1.
         -5    1    4    4    0  501 -0.35025198337E+03  0.53420552079E+03 -0.26866412067E+03  0.69300396105E+03  0.47000000000E+01 0. -1.
          1    1    1    2  502    0 -0.32877619550E+02  0.42568427478E+01  0.48432424904E+03  0.48545755405E+03  0.00000000000E+00 0. -1.
          1    1    1    2  503    0  0.84133319634E+02  0.63894664122E+01 -0.10905877716E+04  0.10938468487E+04  0.00000000000E+00 0. -1.
<mgrwt>
<rscale>  0 0.52883448E+02</rscale>
<asrwt>0</asrwt>
<pdfrwt beam="1">  1        2 0.52773424E+00 0.33152052E+02</pdfrwt>
<pdfrwt beam="2">  1        2 0.31730727E+00 0.84358550E+02</pdfrwt>
<totfact> 0.20496145E+00</totfact>
</mgrwt>
</event>
<event>
13    1  0.1595792E-008  0.1682362E+03  0.7546771E-02  0.1332976E+00
          2   -1    0    0  503    0  0.00000000000E+00  0.00000000000E+00  0.56685647582E+03  0.56685647582E+03  0.00000000000E+00 0. -1.
          2   -1    0    0  502    0 -0.00000000000E+00 -0.00000000000E+00 -0.18844638918E+04  0.18844638918E+04  0.00000000000E+00 0. -1.
         24    2    1    2    0    0 -0.21870656119E+01  0.77028108814E+02 -0.62993328040E+03  0.63974056381E+03  0.80708973580E+02 0.  0.
         25    2    1    2    0    0 -0.18686998166E+03 -0.17048584904E+03 -0.34171433962E+03  0.44315090174E+03  0.12501286751E+03 0.  0.
         24    2    1    2    0    0  0.50399675629E+02 -0.11829774854E+03  0.34229317203E+02  0.15993553666E+03  0.88731308560E+02 0.  0.
        -11    1    5    5    0    0  0.65499909737E+00 -0.10375675071E+03  0.29624088774E+02  0.10790495344E+03  0.00000000000E+00 0.  1.
         12    1    5    5    0    0  0.49744676532E+02 -0.14540997823E+02  0.46052284291E+01  0.52030583216E+02  0.00000000000E+00 0. -1.
        -13    1    3    3    0    0  0.13736410300E+02 -0.20056747470E+01 -0.19111829750E+02  0.23621467683E+02  0.00000000000E+00 0.  1.
         14    1    3    3    0    0 -0.15923475912E+02  0.79033783561E+02 -0.61082145065E+03  0.61611909612E+03  0.00000000000E+00 0. -1.
          5    1    4    4  501    0 -0.18757068641E+03 -0.18682305756E+03 -0.32609534637E+03  0.42005461807E+03  0.47000000000E+01 0. -1.
         -5    1    4    4    0  501  0.70070474434E+00  0.16337208521E+02 -0.15618993246E+02  0.23096283671E+02  0.47000000000E+01 0. -1.
          1    1    1    2  502    0  0.16031182473E+02  0.33072309209E+02 -0.76552014551E+03  0.76640189825E+03  0.00000000000E+00 0. -1.
          1    1    1    2  503    0  0.12262618917E+03  0.17868317956E+03  0.38533103231E+03  0.44209146722E+03  0.00000000000E+00 0. -1.
<mgrwt>
<rscale>  0 0.78633130E+02</rscale>
<asrwt>0</asrwt>
<pdfrwt beam="1">  1        2 0.83361246E-01 0.16823618E+03</pdfrwt>
<pdfrwt beam="2">  1        2 0.27712704E+00 0.36752911E+02</pdfrwt>
<totfact> 0.10297919E+02</totfact>
</mgrwt>
</event>
<event>
13    1  0.1595792E-008  0.1567546E+03  0.7546771E-02  0.1253217E+00
          2   -1    0    0  502    0  0.00000000000E+00  0.00000000000E+00  0.34699950820E+04  0.34699950820E+04  0.00000000000E+00 0. -1.
          2   -1    0    0  503    0 -0.00000000000E+00 -0.00000000000E+00 -0.33865359375E+04  0.33865359375E+04  0.00000000000E+00 0. -1.
         24    2    1    2    0    0  0.57599352559E+01 -0.12325388253E+03 -0.34590833863E+03  0.37607616465E+03  0.80969169886E+02 0.  0.
         25    2    1    2    0    0 -0.16609039700E+02 -0.19668402913E+03  0.10793175921E+03  0.25736138424E+03  0.12500059973E+03 0.  0.
         24    2    1    2    0    0  0.53841581011E+02  0.27511983498E+02  0.28379087554E+03  0.30141751214E+03  0.81605333781E+02 0.  0.
        -11    1    5    5    0    0  0.22422780849E+02 -0.14493928037E+02  0.22507456903E+02  0.34920490649E+02  0.00000000000E+00 0.  1.
         12    1    5    5    0    0  0.31418800163E+02  0.42005911535E+02  0.26128341864E+03  0.26649702149E+03  0.00000000000E+00 0. -1.
        -11    1    3    3    0    0  0.31378882855E+02 -0.11207610123E+03 -0.30571052364E+03  0.32711559275E+03  0.00000000000E+00 0.  1.
         12    1    3    3    0    0 -0.25618947600E+02 -0.11177781302E+02 -0.40197814991E+02  0.48960571902E+02  0.00000000000E+00 0. -1.
          5    1    4    4  501    0 -0.48246381904E+02 -0.25969657509E+02  0.49844509136E+02  0.74220627652E+02  0.47000000000E+01 0.  1.
         -5    1    4    4    0  501  0.31637342205E+02 -0.17071437163E+03  0.58087250076E+02  0.18314075659E+03  0.47000000000E+01 0.  1.
          1    1    1    2  502    0 -0.10225220228E+03  0.17973361162E+02  0.29720528137E+04  0.29738655790E+04  0.00000000000E+00 0. -1.
          1    1    1    2  503    0  0.59259725712E+02  0.27445256701E+03 -0.29344079653E+04  0.29478103795E+04  0.00000000000E+00 0. -1.
<mgrwt>
<rscale>  0 0.11406793E+03</rscale>
<asrwt>0</asrwt>
<pdfrwt beam="1">  1        2 0.51029340E+00 0.83005516E+02</pdfrwt>
<pdfrwt beam="2">  1        2 0.49801999E+00 0.15675455E+03</pdfrwt>
<totfact> 0.41820512E-01</totfact>
</mgrwt>
</event>
<event>
13    1  0.1595792E-008  0.7887428E+02  0.7546771E-02  0.1347102E+00
          2   -1    0    0  503    0  0.00000000000E+00  0.00000000000E+00  0.29503628986E+03  0.29503628986E+03  0.00000000000E+00 0. -1.
          2   -1    0    0  502    0 -0.00000000000E+00 -0.00000000000E+00 -0.80828430656E+03  0.80828430656E+03  0.00000000000E+00 0. -1.
         24    2    1    2    0    0 -0.19232759288E+02  0.17006354268E+02 -0.30194290439E+02  0.90586871903E+02  0.81456559410E+02 0.  0.
         25    2    1    2    0    0  0.22018240819E+02  0.63015724588E+02 -0.38025222456E+02  0.14671931199E+03  0.12499941798E+03 0.  0.
         24    2    1    2    0    0  0.41100102398E+01 -0.12139854195E+03  0.29971074406E+02  0.14833558773E+03  0.79691173375E+02 0.  0.
        -11    1    3    3    0    0 -0.10925149787E+02  0.45439141079E+02  0.20791537914E+01  0.46780309109E+02  0.00000000000E+00 0.  1.
         12    1    3    3    0    0 -0.83076095008E+01 -0.28432786810E+02 -0.32273444230E+02  0.43806562795E+02  0.00000000000E+00 0. -1.
        -13    1    5    5    0    0  0.53241474753E+01  0.11069627495E+02  0.61505624512E+01  0.13737271115E+02  0.00000000000E+00 0.  1.
         14    1    5    5    0    0 -0.12141372355E+01 -0.13246816945E+03  0.23820511954E+02  0.13459831662E+03  0.00000000000E+00 0. -1.
          5    1    4    4  501    0 -0.37362724459E+02  0.65728407155E+02  0.45453811023E+00  0.75752843452E+02  0.47000000000E+01 0. -1.
         -5    1    4    4    0  501  0.59380965278E+02 -0.27126825676E+01 -0.38479760566E+02  0.70966468541E+02  0.47000000000E+01 0. -1.
          1    1    1    2  502    0  0.61885530148E+02  0.50349688469E+02 -0.58348490528E+03  0.58891386862E+03  0.00000000000E+00 0. -1.
          1    1    1    2  503    0 -0.68781021919E+02 -0.89732253715E+01  0.10848532707E+03  0.12876495617E+03  0.00000000000E+00 0. -1.
<mgrwt>
<rscale>  0 0.73966385E+02</rscale>
<asrwt>0</asrwt>
<pdfrwt beam="1">  1        2 0.43387690E-01 0.69363879E+02</pdfrwt>
<pdfrwt beam="2">  1        2 0.11886534E+00 0.78874280E+02</pdfrwt>
<totfact> 0.69524540E+02</totfact>
</mgrwt>
</event>
<event>
13    1  0.1595792E-008  0.4374983E+02  0.7546771E-02  0.1519640E+00
          2   -1    0    0  503    0  0.00000000000E+00  0.00000000000E+00  0.14681835102E+04  0.14681835102E+04  0.00000000000E+00 0. -1.
          2   -1    0    0  502    0 -0.00000000000E+00 -0.00000000000E+00 -0.22534825915E+04  0.22534825915E+04  0.00000000000E+00 0. -1.
         24    2    1    2    0    0  0.23606392660E+02 -0.12164156783E+02 -0.10693897200E+03  0.13682558683E+03  0.81117624429E+02 0.  0.
         25    2    1    2    0    0  0.51435815181E+01  0.10509013158E+03 -0.72285587754E+02  0.17866926487E+03  0.12500843102E+03 0.  0.
         24    2    1    2    0    0 -0.86456910070E+01 -0.93129840540E+02  0.26163197904E+03  0.28993243294E+03  0.82834823851E+02 0.  0.
        -13    1    3    3    0    0 -0.23271693289E+02 -0.20724895192E+02 -0.18165181293E+02  0.36070303585E+02  0.00000000000E+00 0.  1.
         14    1    3    3    0    0  0.46878085950E+02  0.85607384086E+01 -0.88773790709E+02  0.10075528324E+03  0.00000000000E+00 0. -1.
        -13    1    5    5    0    0  0.27262294737E+02 -0.80435290189E+02  0.20259361175E+03  0.21967530617E+03  0.00000000000E+00 0.  1.
         14    1    5    5    0    0 -0.35907985744E+02 -0.12694550351E+02  0.59038367293E+02  0.70257126766E+02  0.00000000000E+00 0. -1.
          5    1    4    4  501    0 -0.68414331330E+01  0.12887597462E+03 -0.37248197559E+02  0.13440736685E+03  0.47000000000E+01 0. -1.
         -5    1    4    4    0  501  0.11985014651E+02 -0.23785843037E+02 -0.35037390195E+02  0.44261898025E+02  0.47000000000E+01 0. -1.
          1    1    1    2  502    0 -0.28855625216E+02  0.32912869373E+02 -0.19914771841E+04  0.19919581519E+04  0.00000000000E+00 0. -1.
          1    1    1    2  503    0  0.87513420441E+01 -0.32709003634E+02  0.11237706836E+04  0.11242806652E+04  0.00000000000E+00 0. -1.
<mgrwt>
<rscale>  0 0.38488267E+02</rscale>
<asrwt>0</asrwt>
<pdfrwt beam="1">  1        2 0.21590934E+00 0.33859488E+02</pdfrwt>
<pdfrwt beam="2">  1        2 0.33139450E+00 0.43749825E+02</pdfrwt>
<totfact> 0.21566647E+01</totfact>
</mgrwt>
</event>
<event>
13    1  0.1595792E-008  0.1783950E+03  0.7546771E-02  0.1366370E+00
          2   -1    0    0  502    0  0.00000000000E+00  0.00000000000E+00  0.31281893198E+04  0.31281893198E+04  0.00000000000E+00 0. -1.
          2   -1    0    0  503    0 -0.00000000000E+00 -0.00000000000E+00 -0.91108544102E+03  0.91108544102E+03  0.00000000000E+00 0. -1.
         24    2    1    2    0    0  0.18364080114E+03  0.48033307990E+03  0.86296012889E+02  0.52765246071E+03  0.80785555387E+02 0.  0.
         25    2    1    2    0    0 -0.13836467546E+03 -0.33185358372E+03  0.94123003917E+02  0.39211137024E+03  0.12498240819E+03 0.  0.
         24    2    1    2    0    0  0.97884491652E+02 -0.21074413722E+03  0.29345035688E+03  0.38579601067E+03  0.93439738986E+02 0.  0.
        -11    1    3    3    0    0  0.11068128064E+03  0.32139996296E+03  0.19607601791E+02  0.34048897210E+03  0.00000000000E+00 0.  1.
         12    1    3    3    0    0  0.72959520506E+02  0.15893311694E+03  0.66688411098E+02  0.18716348861E+03  0.00000000000E+00 0. -1.
        -13    1    5    5    0    0  0.34657951830E+01 -0.11793443507E+03  0.14283133624E+03  0.18526017738E+03  0.00000000000E+00 0.  1.
         14    1    5    5    0    0  0.94418696469E+02 -0.92809702148E+02  0.15061902064E+03  0.20053583329E+03  0.00000000000E+00 0. -1.
          5    1    4    4  501    0  0.18098144000E+02 -0.99841797822E+01  0.13804226128E+02  0.25295717447E+02  0.47000000000E+01 0.  1.
         -5    1    4    4    0  501 -0.15646281946E+03 -0.32186940394E+03  0.80318777788E+02  0.36681565279E+03  0.47000000000E+01 0.  1.
          1    1    1    2  502    0 -0.16888407502E+03  0.58073869329E+02  0.22345667153E+04  0.22416919526E+04  0.00000000000E+00 0. -1.
          1    1    1    2  503    0  0.25723457692E+02  0.41907717109E+01 -0.49133221023E+03  0.49202296659E+03  0.00000000000E+00 0. -1.
<mgrwt>
<rscale>  0 0.68186782E+02</rscale>
<asrwt>0</asrwt>
<pdfrwt beam="1">  1        2 0.46002784E+00 0.17839502E+03</pdfrwt>
<pdfrwt beam="2">  1        2 0.13398315E+00 0.26062595E+02</pdfrwt>
<totfact> 0.12344009E+01</totfact>
</mgrwt>
</event>
<event>
13    1  0.1595792E-008  0.1443790E+03  0.7546771E-02  0.1285353E+00
          2   -1    0    0  503    0  0.00000000000E+00  0.00000000000E+00  0.17676512222E+04  0.17676512222E+04  0.00000000000E+00 0. -1.
          2   -1    0    0  502    0 -0.00000000000E+00 -0.00000000000E+00 -0.17331859524E+04  0.17331859524E+04  0.00000000000E+00 0. -1.
         24    2    1    2    0    0  0.65240463545E+02 -0.75329835529E+02 -0.22253401302E+03  0.25671045846E+03  0.80299254854E+02 0.  0.
         25    2    1    2    0    0  0.10025687523E+03  0.15868674407E+03  0.54885480796E+03  0.59337969645E+03  0.12499976064E+03 0.  0.
         24    2    1    2    0    0 -0.29167862262E+02 -0.53016575019E+02  0.23853023964E+03  0.25768540999E+03  0.76443272302E+02 0.  0.
        -13    1    3    3    0    0 -0.16262679011E+02 -0.30341610199E+01 -0.15061509842E+02  0.22372526465E+02  0.00000000000E+00 0.  1.
         14    1    3    3    0    0  0.81503142556E+02 -0.72295674509E+02 -0.20747250317E+03  0.23433793200E+03  0.00000000000E+00 0. -1.
        -13    1    5    5    0    0 -0.10534693304E+01  0.18424303068E+02  0.27450149960E+02  0.33076811726E+02  0.00000000000E+00 0.  1.
         14    1    5    5    0    0 -0.28114392931E+02 -0.71440878087E+02  0.21108008968E+03  0.22460859826E+03  0.00000000000E+00 0. -1.
          5    1    4    4  501    0  0.75661257638E+02  0.80332413951E+02  0.15085695076E+03  0.18697013727E+03  0.47000000000E+01 0. -1.
         -5    1    4    4    0  501  0.24595617589E+02  0.78354330123E+02  0.39799785720E+03  0.40640955917E+03  0.47000000000E+01 0. -1.
          1    1    1    2  502    0 -0.19961953982E+03 -0.11542270208E+02 -0.14537013960E+04  0.14673884740E+04  0.00000000000E+00 0. -1.
          1    1    1    2  503    0  0.63290063315E+02 -0.18798063319E+02  0.92331563122E+03  0.92567313569E+03  0.00000000000E+00 0. -1.
<mgrwt>
<rscale>  0 0.97633468E+02</rscale>
<asrwt>0</asrwt>
<pdfrwt beam="1">  1        2 0.25994871E+00 0.66022718E+02</pdfrwt>
<pdfrwt beam="2">  1        2 0.25488029E+00 0.14437900E+03</pdfrwt>
<totfact> 0.22897760E+01</totfact>
</mgrwt>
</event>
<event>
13    1  0.1595792E-008  0.1200549E+03  0.7546771E-02  0.1343648E+00
          2   -1    0    0  502    0  0.00000000000E+00  0.00000000000E+00  0.68011665856E+03  0.68011665856E+03  0.00000000000E+00 0. -1.
          2   -1    0    0  503    0 -0.00000000000E+00 -0.00000000000E+00 -0.76412057046E+03  0.76412057046E+03  0.00000000000E+00 0. -1.
         24    2    1    2    0    0  0.10015697988E+03  0.89422687834E+02 -0.19657207020E+03  0.25084859051E+03  0.79098665362E+02 0.  0.
         25    2    1    2    0    0 -0.11237018965E+03  0.27921175413E+02  0.32687219805E+02  0.17349418973E+03  0.12500051189E+03 0.  0.
         24    2    1    2    0    0  0.32002846093E+02 -0.68415704506E+01  0.34743435597E+02  0.93424159643E+02  0.80311755327E+02 0.  0.
        -11    1    5    5    0    0 -0.11005384631E+02  0.22974500137E+02 -0.70714184355E+01  0.26437683448E+02  0.00000000000E+00 0.  1.
         12    1    5    5    0    0  0.43008230724E+02 -0.29816070587E+02  0.41814854032E+02  0.66986476195E+02  0.00000000000E+00 0. -1.
        -13    1    3    3    0    0  0.10393221924E+03  0.96852893540E+02 -0.19654714118E+03  0.24251426327E+03  0.00000000000E+00 0.  1.
         14    1    3    3    0    0 -0.37752393685E+01 -0.74302057056E+01 -0.24929020689E-01  0.83343272418E+01  0.00000000000E+00 0. -1.
          5    1    4    4  501    0 -0.88692584678E+02 -0.39577297009E+02  0.75467048582E+01  0.97528353671E+02  0.47000000000E+01 0.  1.
         -5    1    4    4    0  501 -0.23677604972E+02  0.67498472422E+02  0.25140514946E+02  0.75965836060E+02  0.47000000000E+01 0.  1.
          1    1    1    2  502    0 -0.46457500015E+02  0.67394387574E+01  0.47642711596E+03  0.47873428555E+03  0.00000000000E+00 0. -1.
          1    1    1    2  503    0  0.26667863697E+02 -0.11724173155E+03 -0.43128961306E+03  0.44773600358E+03  0.00000000000E+00 0. -1.
<mgrwt>
<rscale>  0 0.75072164E+02</rscale>
<asrwt>0</asrwt>
<pdfrwt beam="1">  1        2 0.10001716E+00 0.46943789E+02</pdfrwt>
<pdfrwt beam="2">  1        2 0.11237067E+00 0.12005486E+03</pdfrwt>
<totfact> 0.30576632E+02</totfact>
</mgrwt>
</event>
<event>
13    1  0.1595792E-008  0.1739846E+03  0.7546771E-02  0.1269057E+00
          2   -1    0    0  502    0  0.00000000000E+00  0.00000000000E+00  0.23836092341E+04  0.23836092341E+04  0.00000000000E+00 0. -1.
          2   -1    0    0  503    0 -0.00000000000E+00 -0.00000000000E+00 -0.26176244054E+04  0.26176244054E+04  0.00000000000E+00 0. -1.
         24    2    1    2    0    0  0.26303073034E+02 -0.21547550444E+02 -0.42980603057E+03  0.43857516591E+03  0.80366682504E+02 0.  0.
         25    2    1    2    0    0  0.17332781299E+03  0.18092006139E+03 -0.40135663922E+03  0.48937383666E+03  0.12500000313E+03 0.  0.
         24    2    1    2    0    0 -0.22330021949E+02 -0.34719513111E+02 -0.62227355638E+01  0.89986716364E+02  0.79717076045E+02 0.  0.
        -13    1    5    5    0    0 -0.28846186450E+02  0.12036290273E+02 -0.24139993333E+02  0.39493215042E+02  0.00000000000E+00 0.  1.
         14    1    5    5    0    0  0.65161645006E+01 -0.46755803383E+02  0.17917257769E+02  0.50493501322E+02  0.00000000000E+00 0. -1.
        -13    1    3    3    0    0 -0.66778994969E+01 -0.37500179189E+02 -0.33119902736E+03  0.33338214335E+03  0.00000000000E+00 0.  1.
         14    1    3    3    0    0  0.32980972531E+02  0.15952628745E+02 -0.98607003214E+02  0.10519302256E+03  0.00000000000E+00 0. -1.
          5    1    4    4  501    0 -0.16972595248E+02  0.11435898837E+02 -0.12516085989E+02  0.24445678149E+02  0.47000000000E+01 0. -1.
         -5    1    4    4    0  501  0.19030040824E+03  0.16948416255E+03 -0.38884055324E+03  0.46492815851E+03  0.47000000000E+01 0. -1.
          1    1    1    2  502    0 -0.16195231475E+03 -0.62497497531E+02  0.22894406601E+04  0.22960124184E+04  0.00000000000E+00 0. -1.
          1    1    1    2  503    0 -0.15348549324E+02 -0.62155500304E+02 -0.16860704260E+04  0.16872855021E+04  0.00000000000E+00 0. -1.
<mgrwt>
<rscale>  0 0.10554115E+03</rscale>
<asrwt>0</asrwt>
<pdfrwt beam="1">  1        2 0.35053077E+00 0.17398461E+03</pdfrwt>
<pdfrwt beam="2">  1        2 0.38494476E+00 0.64022529E+02</pdfrwt>
<totfact> 0.42244870E+00</totfact>
</mgrwt>
</event>
<event>
13    1  0.1595792E-008  0.8368244E+02  0.7546771E-02  0.1430005E+00
          2   -1    0    0  502    0  0.00000000000E+00  0.00000000000E+00  0.28664763805E+03  0.28664763805E+03  0.00000000000E+00 0. -1.
          2   -1    0    0  503    0 -0.00000000000E+00 -0.00000000000E+00 -0.36879927894E+04  0.36879927894E+04  0.00000000000E+00 0. -1.
         24    2    1    2    0    0  0.38242704656E+02 -0.21334853702E+01 -0.58740834078E+03  0.59403489777E+03  0.79761173065E+02 0.  0.
         25    2    1    2    0    0  0.58678691290E+01  0.77706296820E+02 -0.76645952181E+02  0.16604680694E+03  0.12499695858E+03 0.  0.
         24    2    1    2    0    0 -0.14911300746E+02  0.17335054907E+02 -0.21207311328E+02  0.85806592276E+02  0.79938540178E+02 0.  0.
        -13    1    3    3    0    0  0.59632980154E+02  0.12840081066E+02 -0.35985703128E+03  0.36499046969E+03  0.00000000000E+00 0.  1.
         14    1    3    3    0    0 -0.21390275497E+02 -0.14973566437E+02 -0.22755130950E+03  0.22904442808E+03  0.00000000000E+00 0. -1.
        -13    1    5    5    0    0  0.31366229143E+02  0.17342188923E+02 -0.26235279213E+01  0.35937094291E+02  0.00000000000E+00 0.  1.
         14    1    5    5    0    0 -0.46277529890E+02 -0.71340162751E-02 -0.18583783407E+02  0.49869497986E+02  0.00000000000E+00 0. -1.
          5    1    4    4  501    0  0.53364425007E+02  0.34139005874E+02  0.28622418030E+01  0.63588646837E+02  0.47000000000E+01 0.  1.
         -5    1    4    4    0  501 -0.47496555878E+02  0.43567290945E+02 -0.79508193984E+02  0.10245816010E+03  0.47000000000E+01 0.  1.
          1    1    1    2  502    0  0.31283817466E+01 -0.84063794412E+02  0.19765982747E+03  0.21481600429E+03  0.00000000000E+00 0. -1.
          1    1    1    2  503    0 -0.32327654785E+02 -0.88440719435E+01 -0.29137433745E+04  0.29139361262E+04  0.00000000000E+00 0. -1.
<mgrwt>
<rscale>  0 0.52959101E+02</rscale>
<asrwt>0</asrwt>
<pdfrwt beam="1">  1        2 0.42154066E-01 0.83682437E+02</pdfrwt>
<pdfrwt beam="2">  1        2 0.54235187E+00 0.33515591E+02</pdfrwt>
<totfact> 0.27156258E+01</totfact>
</mgrwt>
</event>
<event>
13    1  0.1595792E-008  0.8368843E+02  0.7546771E-02  0.1422789E+00
          2   -1    0    0  503    0  0.00000000000E+00  0.00000000000E+00  0.24456509404E+04  0.24456509404E+04  0.00000000000E+00 0. -1.
          2   -1    0    0  502    0 -0.00000000000E+00 -0.00000000000E+00 -0.49746486858E+04  0.49746486858E+04  0.00000000000E+00 0. -1.
         24    2    1    2    0    0  0.74346159314E+03  0.92650379460E+02 -0.11958240224E+04  0.14132185091E+04  0.76630467764E+02 0.  0.
         25    2    1    2    0    0 -0.14629874607E+04  0.52153653242E+03 -0.63912923401E+03  0.16841744169E+04  0.12499849589E+03 0.  0.
         24    2    1    2    0    0  0.67621111656E+03 -0.58431450436E+03  0.41161426123E+02  0.89701290680E+03  0.65214858733E+02 0.  0.
        -13    1    5    5    0    0  0.37921842863E+03 -0.29052405299E+03  0.55707518440E+01  0.47774666431E+03  0.00000000000E+00 0.  1.
         14    1    5    5    0    0  0.29699268793E+03 -0.29379045137E+03  0.35590674279E+02  0.41926624249E+03  0.00000000000E+00 0. -1.
        -13    1    3    3    0    0  0.16920201767E+03  0.37515075931E+02 -0.22634327109E+03  0.28507539367E+03  0.00000000000E+00 0.  1.
         14    1    3    3    0    0  0.57425957547E+03  0.55135303530E+02 -0.96948075128E+03  0.11281431154E+04  0.00000000000E+00 0. -1.
          5    1    4    4  501    0 -0.12297347569E+04  0.38873415123E+03 -0.52595438171E+03  0.13928431047E+04  0.47000000000E+01 0.  1.
         -5    1    4    4    0  501 -0.23325270380E+03  0.13280238119E+03 -0.11317485230E+03  0.29133131221E+03  0.47000000000E+01 0.  1.
          1    1    1    2  502    0 -0.35381465945E+02 -0.13570210858E+01 -0.20790970312E+04  0.20793985080E+04  0.00000000000E+00 0. -1.
          1    1    1    2  503    0  0.78696216936E+02 -0.28515386436E+02  0.13438911161E+04  0.13464952854E+04  0.00000000000E+00 0. -1.
<mgrwt>
<rscale>  0 0.54435248E+02</rscale>
<asrwt>0</asrwt>
<pdfrwt beam="1">  1        2 0.35965455E+00 0.83688425E+02</pdfrwt>
<pdfrwt beam="2">  1        2 0.73156598E+00 0.35407480E+02</pdfrwt>
<totfact> 0.14719450E-01</totfact>
</mgrwt>
</event>
<event>
13    1  0.1595792E-008  0.1263669E+03  0.7546771E-02  0.1267570E+00
          2   -1    0    0  503    0  0.00000000000E+00  0.00000000000E+00  0.42279626429E+04  0.42279626429E+04  0.00000000000E+00 0. -1.
          2   -1    0    0  502    0 -0.00000000000E+00 -0.00000000000E+00 -0.11375469959E+04  0.11375469959E+04  0.00000000000E+00 0. -1.
         24    2    1    2    0    0  0.17771328722E+03 -0.58058080648E+02 -0.28710557132E+03  0.35233627838E+03  0.82210040749E+02 0.  0.
         25    2    1    2    0    0 -0.17608966155E+03 -0.54730098436E+02  0.86115984086E+02  0.23883931075E+03  0.12500120425E+03 0.  0.
         24    2    1    2    0    0  0.52972402885E+01 -0.10060949661E+03  0.22935310988E+03  0.25540458997E+03  0.49782768128E+02 0.  0.
        -11    1    5    5    0    0  0.18378990615E+02 -0.97103521346E+02  0.20258438087E+03  0.22540477485E+03  0.00000000000E+00 0.  1.
         12    1    5    5    0    0 -0.13081750326E+02 -0.35059752624E+01  0.26768729014E+02  0.29999815119E+02  0.00000000000E+00 0. -1.
        -13    1    3    3    0    0  0.39367436390E+02 -0.46769219019E+02 -0.56865698668E+02  0.83491691686E+02  0.00000000000E+00 0.  1.
         14    1    3    3    0    0  0.13834585083E+03 -0.11288861629E+02 -0.23023987265E+03  0.26884458669E+03  0.00000000000E+00 0. -1.
          5    1    4    4  501    0 -0.59730136479E+02 -0.73806847638E+02  0.41418125861E+01  0.95154529969E+02  0.47000000000E+01 0. -1.
         -5    1    4    4    0  501 -0.11635952507E+03  0.19076749202E+02  0.81974171500E+02  0.14368478078E+03  0.47000000000E+01 0. -1.
          1    1    1    2  502    0 -0.20845406378E+02  0.12506073346E+03 -0.72238959630E+03  0.73343128299E+03  0.00000000000E+00 0. -1.
          1    1    1    2  503    0  0.13924540423E+02  0.88336942236E+02  0.37844417207E+04  0.37854981767E+04  0.00000000000E+00 0. -1.
<mgrwt>
<rscale>  0 0.10630472E+03</rscale>
<asrwt>0</asrwt>
<pdfrwt beam="1">  1        2 0.62175921E+00 0.89427670E+02</pdfrwt>
<pdfrwt beam="2">  1        2 0.16728632E+00 0.12636686E+03</pdfrwt>
<totfact> 0.19891723E+00</totfact>
</mgrwt>
</event>
<event>
13    1  0.1595792E-008  0.1019632E+03  0.7546771E-02  0.1341457E+00
          2   -1    0    0  503    0  0.00000000000E+00  0.00000000000E+00  0.31203208291E+04  0.31203208291E+04  0.00000000000E+00 0. -1.
          2   -1    0    0  502    0 -0.00000000000E+00 -0.00000000000E+00 -0.10074219451E+04  0.10074219451E+04  0.00000000000E+00 0. -1.
         24    2    1    2    0    0 -0.91832196067E+02  0.18382317932E+03 -0.10556223450E+03  0.24487715074E+03  0.81223888802E+02 0.  0.
         25    2    1    2    0    0 -0.13368821973E+03  0.36480047455E+03  0.10388646993E+03  0.42115410199E+03  0.12500581053E+03 0.  0.
         24    2    1    2    0    0  0.16076246036E+03 -0.48595480402E+03  0.17579012567E+04  0.18326665833E+04  0.80332665058E+02 0.  0.
        -11    1    5    5    0    0  0.12440088181E+03 -0.38399277830E+03  0.14904138546E+04  0.15441047539E+04  0.00000000000E+00 0.  1.
         12    1    5    5    0    0  0.36361578554E+02 -0.10196202573E+03  0.26748740208E+03  0.28856182935E+03  0.00000000000E+00 0. -1.
        -11    1    3    3    0    0 -0.46745364684E+02  0.59826220833E+02 -0.80357737238E+02  0.11055167006E+03  0.00000000000E+00 0.  1.
         12    1    3    3    0    0 -0.45086831383E+02  0.12399695849E+03 -0.25204497264E+02  0.13432548069E+03  0.00000000000E+00 0. -1.
          5    1    4    4  501    0 -0.27339896863E+02  0.11812612175E+03  0.91916881408E+02  0.15222369621E+03  0.47000000000E+01 0.  1.
         -5    1    4    4    0  501 -0.10634832287E+03  0.24667435279E+03  0.11969588518E+02  0.26893040578E+03  0.47000000000E+01 0.  1.
          1    1    1    2  502    0  0.22200227778E+02 -0.99569716108E+02 -0.63128878883E+03  0.63947831346E+03  0.00000000000E+00 0. -1.
          1    1    1    2  503    0  0.42557727655E+02  0.36900866261E+02  0.98796218077E+03  0.98956662471E+03  0.00000000000E+00 0. -1.
<mgrwt>
<rscale>  0 0.75785072E+02</rscale>
<asrwt>0</asrwt>
<pdfrwt beam="1">  1        2 0.45887071E+00 0.56327916E+02</pdfrwt>
<pdfrwt beam="2">  1        2 0.14815029E+00 0.10196325E+03</pdfrwt>
<totfact> 0.12410361E+01</totfact>
</mgrwt>
</event>
<event>
13    1  0.1595792E-008  0.1400635E+03  0.7546771E-02  0.1374604E+00
          2   -1    0    0  502    0  0.00000000000E+00  0.00000000000E+00  0.17954230776E+04  0.17954230776E+04  0.00000000000E+00 0. -1.
          2   -1    0    0  503    0 -0.00000000000E+00 -0.00000000000E+00 -0.94625795952E+03  0.94625795952E+03  0.00000000000E+00 0. -1.
         24    2    1    2    0    0 -0.85086282518E+02 -0.63433574748E+01 -0.96781704413E+02  0.15149592299E+03  0.79400268994E+02 0.  0.
         25    2    1    2    0    0  0.36790505506E+02 -0.11721946568E+03 -0.29262707034E+02  0.17768864386E+03  0.12499201457E+03 0.  0.
         24    2    1    2    0    0  0.14946912557E+03 -0.41956965392E+01 -0.65756323224E+02  0.18335606722E+03  0.83288234310E+02 0.  0.
        -11    1    3    3    0    0 -0.68343790307E+02  0.25802109553E+02 -0.87683544261E+02  0.11412723805E+03  0.00000000000E+00 0.  1.
         12    1    3    3    0    0 -0.16742492212E+02 -0.32145467028E+02 -0.90981601524E+01  0.37368684939E+02  0.00000000000E+00 0. -1.
        -13    1    5    5    0    0  0.48678655262E+02 -0.40957180724E+02 -0.29361615995E+02  0.70065730745E+02  0.00000000000E+00 0.  1.
         14    1    5    5    0    0  0.10079047031E+03  0.36761484185E+02 -0.36394707229E+02  0.11329033647E+03  0.00000000000E+00 0. -1.
          5    1    4    4  501    0  0.34401163806E+02 -0.13033421458E+03  0.10696419796E+02  0.13530318162E+03  0.47000000000E+01 0.  1.
         -5    1    4    4    0  501  0.23893417003E+01  0.13114748899E+02 -0.39959126829E+02  0.42385462241E+02  0.47000000000E+01 0.  1.
          1    1    1    2  502    0 -0.30740783892E+02  0.40743722229E+01  0.16263781492E+04  0.16266737474E+04  0.00000000000E+00 0. -1.
          1    1    1    2  503    0 -0.70432564665E+02  0.12368414747E+03 -0.58541229638E+03  0.60246665572E+03  0.00000000000E+00 0. -1.
<mgrwt>
<rscale>  0 0.65903824E+02</rscale>
<asrwt>0</asrwt>
<pdfrwt beam="1">  1        2 0.26403281E+00 0.31009616E+02</pdfrwt>
<pdfrwt beam="2">  1        2 0.13915558E+00 0.14006345E+03</pdfrwt>
<totfact> 0.62572591E+01</totfact>
</mgrwt>
</event>
<event>
13    1  0.1595792E-008  0.5523067E+02  0.7546771E-02  0.1441940E+00
          2   -1    0    0  502    0  0.00000000000E+00  0.00000000000E+00  0.37414853474E+04  0.37414853474E+04  0.00000000000E+00 0. -1.
          2   -1    0    0  503    0 -0.00000000000E+00 -0.00000000000E+00 -0.13676328170E+04  0.13676328170E+04  0.00000000000E+00 0. -1.
         24    2    1    2    0    0 -0.13508682753E+02 -0.17136753021E+02  0.23600150801E+01  0.82090232724E+02  0.79101730851E+02 0.  0.
         25    2    1    2    0    0  0.57043147637E+02 -0.46396680006E+02  0.14783613965E+03  0.20709265142E+03  0.12500107790E+03 0.  0.
         24    2    1    2    0    0  0.21974857137E+02  0.19657987104E+02  0.12729436221E+04  0.12759931107E+04  0.83088041361E+02 0.  0.
        -11    1    5    5    0    0  0.90884532507E+01  0.51437722893E+02  0.64378133600E+03  0.64589693288E+03  0.00000000000E+00 0.  1.
         12    1    5    5    0    0  0.12886403887E+02 -0.31779735789E+02  0.62916228608E+03  0.63009617777E+03  0.00000000000E+00 0. -1.
        -13    1    3    3    0    0 -0.69937863021E+01 -0.14531304891E+02  0.40352280132E+02  0.43455475840E+02  0.00000000000E+00 0.  1.
         14    1    3    3    0    0 -0.65148964509E+01 -0.26054481301E+01 -0.37992265051E+02  0.38634756884E+02  0.00000000000E+00 0. -1.
          5    1    4    4  501    0 -0.36558297253E+02 -0.16779412054E+02  0.73281746249E+02  0.83727905147E+02  0.47000000000E+01 0. -1.
         -5    1    4    4    0  501  0.93601444890E+02 -0.29617267953E+02  0.74554393405E+02  0.12336474627E+03  0.47000000000E+01 0. -1.
          1    1    1    2  502    0 -0.55169230577E+02 -0.13823022547E+01  0.22465729529E+04  0.22472506730E+04  0.00000000000E+00 0. -1.
          1    1    1    2  503    0 -0.10340091445E+02  0.45257748178E+02 -0.12958601993E+04  0.12966914966E+04  0.00000000000E+00 0. -1.
<mgrwt>
<rscale>  0 0.50636201E+02</rscale>
<asrwt>0</asrwt>
<pdfrwt beam="1">  1        2 0.55021843E+00 0.55230672E+02</pdfrwt>
<pdfrwt beam="2">  1        2 0.20112247E+00 0.46423930E+02</pdfrwt>
<totfact> 0.37551650E+00</totfact>
</mgrwt>
</event>
<event>
13    1  0.1595792E-008  0.1867654E+03  0.7546771E-02  0.1239987E+00
          2   -1    0    0  502    0  0.00000000000E+00  0.00000000000E+00  0.47023037157E+04  0.47023037157E+04  0.00000000000E+00 0. -1.
          2   -1    0    0  503    0 -0.00000000000E+00 -0.00000000000E+00 -0.10682550565E+04  0.10682550565E+04  0.00000000000E+00 0. -1.
         24    2    1    2    0    0 -0.30924345323E+02  0.49246828359E+03  0.20203757790E+01  0.49995110409E+03  0.80409570860E+02 0.  0.
         25    2    1    2    0    0 -0.85992770084E+02 -0.20516821347E+03  0.36979032164E+03  0.44928352528E+03  0.12498820657E+03 0.  0.
         24    2    1    2    0    0 -0.56654276788E+02 -0.16816984402E+03  0.14839761252E+04  0.14984616915E+04  0.10821967050E+03 0.  0.
        -13    1    5    5    0    0 -0.64675558544E+01 -0.15207558173E+03  0.98205946371E+03  0.99378549099E+03  0.00000000000E+00 0.  1.
         14    1    5    5    0    0 -0.50186720933E+02 -0.16094262286E+02  0.50191666152E+03  0.50467620050E+03  0.00000000000E+00 0. -1.
        -13    1    3    3    0    0  0.91694408950E+01  0.32820073756E+03 -0.22471056431E+02  0.32909687200E+03  0.00000000000E+00 0.  1.
         14    1    3    3    0    0 -0.40093786218E+02  0.16426754603E+03  0.24491432210E+02  0.17085423209E+03  0.00000000000E+00 0. -1.
          5    1    4    4  501    0 -0.11669501929E+03 -0.14987696399E+03  0.25324013813E+03  0.31659672996E+03  0.47000000000E+01 0. -1.
         -5    1    4    4    0  501  0.30702249202E+02 -0.55291249478E+02  0.11655018351E+03  0.13268679532E+03  0.47000000000E+01 0. -1.
          1    1    1    2  502    0  0.18232146875E+03 -0.40043410567E+02  0.25450853999E+04  0.25519216848E+04  0.00000000000E+00 0. -1.
          1    1    1    2  503    0 -0.87500765587E+01 -0.79086815534E+02 -0.76682356330E+03  0.77094076650E+03  0.00000000000E+00 0. -1.
<mgrwt>
<rscale>  0 0.12190491E+03</rscale>
<asrwt>0</asrwt>
<pdfrwt beam="1">  1        2 0.69151524E+00 0.18676538E+03</pdfrwt>
<pdfrwt beam="2">  1        2 0.15709633E+00 0.79569393E+02</pdfrwt>
<totfact> 0.79504884E-01</totfact>
</mgrwt>
</event>
<event>
13    1  0.1595792E-008  0.5312238E+02  0.7546771E-02  0.1554883E+00
          2   -1    0    0  503    0  0.00000000000E+00  0.00000000000E+00  0.47162048177E+04  0.47162048177E+04  0.00000000000E+00 0. -1.
          2   -1    0    0  502    0 -0.00000000000E+00 -0.00000000000E+00 -0.99446639179E+03  0.99446639179E+03  0.00000000000E+00 0. -1.
         24    2    1    2    0    0  0.36541715810E+02  0.73280694163E+02  0.94169833195E+02  0.14799764475E+03  0.79561223188E+02 0.  0.
         25    2    1    2    0    0  0.61472900953E+02 -0.11682827861E+03  0.15569574308E+04  0.15675356418E+04  0.12499513016E+03 0.  0.
         24    2    1    2    0    0 -0.73409844049E+02  0.13173662701E+02  0.58980902857E+03  0.59981013800E+03  0.79592467440E+02 0.  0.
        -13    1    3    3    0    0  0.12583322186E+02  0.73013121738E+02  0.30776446223E+02  0.80227461541E+02  0.00000000000E+00 0.  1.
         14    1    3    3    0    0  0.23958393624E+02  0.26757242568E+00  0.63393386972E+02  0.67770183206E+02  0.00000000000E+00 0. -1.
        -13    1    5    5    0    0 -0.27501369287E+02 -0.18538115715E+02  0.41475559439E+03  0.41607954783E+03  0.00000000000E+00 0.  1.
         14    1    5    5    0    0 -0.45908474762E+02  0.31711778416E+02  0.17505343418E+03  0.18373059017E+03  0.00000000000E+00 0. -1.
          5    1    4    4  501    0  0.76719509088E+02 -0.83750356939E+02  0.14499985205E+04  0.14544475944E+04  0.47000000000E+01 0. -1.
         -5    1    4    4    0  501 -0.15246608135E+02 -0.33077921668E+02  0.10695891030E+03  0.11308804735E+03  0.47000000000E+01 0. -1.
          1    1    1    2  502    0 -0.85932566216E+01 -0.20415237071E+02 -0.95684384420E+03  0.95710018710E+03  0.00000000000E+00 0. -1.
          1    1    1    2  503    0 -0.16011516093E+02  0.50789158813E+02  0.24376459775E+04  0.24382275979E+04  0.00000000000E+00 0. -1.
<mgrwt>
<rscale>  0 0.34302548E+02</rscale>
<asrwt>0</asrwt>
<pdfrwt beam="1">  1        2 0.69355952E+00 0.53122377E+02</pdfrwt>
<pdfrwt beam="2">  1        2 0.14624506E+00 0.22150078E+02</pdfrwt>
<totfact> 0.12418573E+00</totfact>
</mgrwt>
</event>
<event>
13    1  0.1595792E-008  0.9425768E+02  0.7546771E-02  0.1319731E+00
          2   -1    0    0  503    0  0.00000000000E+00  0.00000000000E+00  0.25833455155E+04  0.25833455155E+04  0.00000000000E+00 0. -1.
          2   -1    0    0  502    0 -0.00000000000E+00 -0.00000000000E+00 -0.21015398045E+04  0.21015398045E+04  0.00000000000E+00 0. -1.
         24    2    1    2    0    0 -0.58969123105E+02 -0.27252723094E+03 -0.16850230899E+03  0.33531111628E+03  0.79322553454E+02 0.  0.
         25    2    1    2    0    0  0.50630152617E+02  0.16665441492E+03  0.29239695945E+03  0.36257150506E+03  0.12500003209E+03 0.  0.
         24    2    1    2    0    0  0.36606575495E+02 -0.46033709891E+02  0.44339407488E+03  0.45436070232E+03  0.79913693210E+02 0.  0.
        -11    1    5    5    0    0  0.22746714114E+02  0.15914181500E+02  0.23160614273E+03  0.23326396963E+03  0.00000000000E+00 0.  1.
         12    1    5    5    0    0  0.13859861381E+02 -0.61947891391E+02  0.21178793215E+03  0.22109673270E+03  0.00000000000E+00 0. -1.
        -13    1    3    3    0    0 -0.80803841573E+01 -0.50769794148E+02 -0.71288113259E+02  0.87891181003E+02  0.00000000000E+00 0.  1.
         14    1    3    3    0    0 -0.50888738948E+02 -0.22175743679E+03 -0.97214195729E+02  0.24741993528E+03  0.00000000000E+00 0. -1.
          5    1    4    4  501    0  0.39027890108E+02 -0.26360895397E+01  0.91093599715E+02  0.99248471442E+02  0.47000000000E+01 0.  1.
         -5    1    4    4    0  501  0.11602262509E+02  0.16929050446E+03  0.20130335973E+03  0.26332303362E+03  0.47000000000E+01 0.  1.
          1    1    1    2  502    0 -0.48348104761E+02  0.80939776412E+02 -0.18070440529E+04  0.18095018640E+04  0.00000000000E+00 0. -1.
          1    1    1    2  503    0  0.20080499753E+02  0.70966749493E+02  0.17215610386E+04  0.17231401323E+04  0.00000000000E+00 0. -1.
<mgrwt>
<rscale>  0 0.83377381E+02</rscale>
<asrwt>0</asrwt>
<pdfrwt beam="1">  1        2 0.37990375E+00 0.73753007E+02</pdfrwt>
<pdfrwt beam="2">  1        2 0.30904997E+00 0.94257684E+02</pdfrwt>
<totfact> 0.63510961E+00</totfact>
</mgrwt>
</event>
<event>
13    1  0.1595792E-008  0.1861346E+03  0.7546771E-02  0.1382679E+00
          2   -1    0    0  503    0  0.00000000000E+00  0.00000000000E+00  0.19660996957E+04  0.19660996957E+04  0.00000000000E+00 0. -1.
          2   -1    0    0  502    0 -0.00000000000E+00 -0.00000000000E+00 -0.31873192617E+04  0.31873192617E+04  0.00000000000E+00 0. -1.
         24    2    1    2    0    0 -0.35887206034E+03  0.19434128754E+03 -0.26143184842E+03  0.49115170768E+03  0.79534249572E+02 0.  0.
         25    2    1    2    0    0  0.16461944854E+03  0.69527525874E+03 -0.12978877628E+04  0.14868232598E+04  0.12499405112E+03 0.  0.
         24    2    1    2    0    0  0.47454817698E+02 -0.76248996230E+03  0.33227956231E+03  0.83683430545E+03  0.78987625049E+02 0.  0.
        -11    1    5    5    0    0  0.60158884349E+02 -0.61299208027E+03  0.24228060050E+03  0.66187481537E+03  0.00000000000E+00 0.  1.
         12    1    5    5    0    0 -0.12704066651E+02 -0.14949788203E+03  0.89998961817E+02  0.17495949008E+03  0.00000000000E+00 0. -1.
        -13    1    3    3    0    0 -0.26173657173E+03  0.17728482934E+03 -0.21374786326E+03  0.38160724934E+03  0.00000000000E+00 0.  1.
         14    1    3    3    0    0 -0.97135488610E+02  0.17056458192E+02 -0.47683985162E+02  0.10954445835E+03  0.00000000000E+00 0. -1.
          5    1    4    4  501    0  0.11725904944E+03  0.23704230094E+03 -0.45890788478E+03  0.52967657473E+03  0.47000000000E+01 0. -1.
         -5    1    4    4    0  501  0.47360399102E+02  0.45823295780E+03 -0.83897987798E+03  0.95714668503E+03  0.47000000000E+01 0. -1.
          1    1    1    2  502    0  0.19899082869E+02  0.90106917411E+01 -0.11589040202E+04  0.11591098715E+04  0.00000000000E+00 0. -1.
          1    1    1    2  503    0  0.12689871123E+03 -0.13613727572E+03  0.11647245032E+04  0.11794998131E+04  0.00000000000E+00 0. -1.
<mgrwt>
<rscale>  0 0.63764799E+02</rscale>
<asrwt>0</asrwt>
<pdfrwt beam="1">  1        2 0.28913231E+00 0.18613464E+03</pdfrwt>
<pdfrwt beam="2">  1        2 0.46872341E+00 0.21844131E+02</pdfrwt>
<totfact> 0.42164195E+00</totfact>
</mgrwt>
</event>
<event>
13    1  0.1595792E-008  0.1038482E+03  0.7546771E-02  0.1328100E+00
          2   -1    0    0  502    0  0.00000000000E+00  0.00000000000E+00  0.13383778485E+04  0.13383778485E+04  0.00000000000E+00 0. -1.
          2   -1    0    0  503    0 -0.00000000000E+00 -0.00000000000E+00 -0.57206923619E+03  0.57206923619E+03  0.00000000000E+00 0. -1.
         24    2    1    2    0    0 -0.43702593089E+02  0.60063386493E+00 -0.13744085152E+03  0.16530602672E+03  0.80782531532E+02 0.  0.
         25    2    1    2    0    0  0.32712732576E+03  0.80342780071E+01  0.29468566174E+03  0.45775813275E+03  0.12500412785E+03 0.  0.
         24    2    1    2    0    0 -0.16594999494E+03  0.60626996332E+02  0.51634199937E+03  0.55162495684E+03  0.80411436945E+02 0.  0.
        -11    1    3    3    0    0  0.13707572675E+02 -0.16603406441E+02 -0.77917275478E+02  0.80837321035E+02  0.00000000000E+00 0.  1.
         12    1    3    3    0    0 -0.57410165764E+02  0.17204040306E+02 -0.59523576041E+02  0.84468705688E+02  0.00000000000E+00 0. -1.
        -13    1    5    5    0    0 -0.35678208811E+02 -0.19993517321E+02  0.10583506735E+03  0.11346249072E+03  0.00000000000E+00 0.  1.
         14    1    5    5    0    0 -0.13027178613E+03  0.80620513654E+02  0.41050693202E+03  0.43816246612E+03  0.00000000000E+00 0. -1.
          5    1    4    4  501    0  0.27833053013E+03  0.48285130687E+01  0.17618097866E+03  0.32947386206E+03  0.47000000000E+01 0. -1.
         -5    1    4    4    0  501  0.48796795629E+02  0.32057649384E+01  0.11850468309E+03  0.12828427069E+03  0.47000000000E+01 0. -1.
          1    1    1    2  502    0 -0.61895007981E+02  0.55974626897E+01  0.40506039847E+03  0.40980025624E+03  0.00000000000E+00 0. -1.
          1    1    1    2  503    0 -0.55579729749E+02 -0.74859370894E+02 -0.31233859570E+03  0.32595771219E+03  0.00000000000E+00 0. -1.
<mgrwt>
<rscale>  0 0.80336251E+02</rscale>
<asrwt>0</asrwt>
<pdfrwt beam="1">  1        2 0.19682027E+00 0.62147595E+02</pdfrwt>
<pdfrwt beam="2">  1        2 0.84127829E-01 0.10384816E+03</pdfrwt>
<totfact> 0.17763460E+02</totfact>
</mgrwt>
</event>
<event>
13    1  0.1595792E-008  0.9727562E+02  0.7546771E-02  0.1371220E+00
          2   -1    0    0  502    0  0.00000000000E+00  0.00000000000E+00  0.19688553831E+04  0.19688553831E+04  0.00000000000E+00 0. -1.
          2   -1    0    0  503    0 -0.00000000000E+00 -0.00000000000E+00 -0.23592779275E+04  0.23592779275E+04  0.00000000000E+00 0. -1.
         24    2    1    2    0    0 -0.98186111371E+01  0.13248084109E+02 -0.25531257950E+03  0.26757744876E+03  0.78366197931E+02 0.  0.
         25    2    1    2    0    0  0.89681774825E+02 -0.61107834612E+02 -0.19271399295E+03  0.25405161565E+03  0.12500620844E+03 0.  0.
         24    2    1    2    0    0  0.15865488345E+02 -0.47683585465E+02  0.31041315936E+03  0.32439147790E+03  0.79674734952E+02 0.  0.
        -11    1    3    3    0    0  0.31432233024E+02  0.20616019017E+02 -0.10466191551E+03  0.11120756302E+03  0.00000000000E+00 0.  1.
         12    1    3    3    0    0 -0.41250844162E+02 -0.73679349078E+01 -0.15065066398E+03  0.15636988574E+03  0.00000000000E+00 0. -1.
        -11    1    5    5    0    0  0.35818821867E+01 -0.58344599822E+02  0.29865469857E+03  0.30432146028E+03  0.00000000000E+00 0.  1.
         12    1    5    5    0    0  0.12283606159E+02  0.10661014357E+02  0.11758460793E+02  0.20070017628E+02  0.00000000000E+00 0. -1.
          5    1    4    4  501    0  0.11583475793E+03 -0.60940787843E+02 -0.12392217409E+03  0.18030603428E+03  0.47000000000E+01 0.  1.
         -5    1    4    4    0  501 -0.26152983101E+02 -0.16704676952E+00 -0.68791818859E+02  0.73745581370E+02  0.47000000000E+01 0.  1.
          1    1    1    2  502    0 -0.45902416652E+02 -0.94842948630E+00  0.16127460573E+04  0.16133994473E+04  0.00000000000E+00 0. -1.
          1    1    1    2  503    0 -0.49826235381E+02  0.96491765455E+02 -0.18655551886E+04  0.18687133210E+04  0.00000000000E+00 0. -1.
<mgrwt>
<rscale>  0 0.66829179E+02</rscale>
<asrwt>0</asrwt>
<pdfrwt beam="1">  1        2 0.28953756E+00 0.45912214E+02</pdfrwt>
<pdfrwt beam="2">  1        2 0.34695264E+00 0.97275623E+02</pdfrwt>
<totfact> 0.98815846E+00</totfact>
</mgrwt>
</event>
<event>
13    1  0.1595792E-008  0.1055624E+03  0.7546771E-02  0.1396292E+00
          2   -1    0    0  502    0  0.00000000000E+00  0.00000000000E+00  0.28759241386E+03  0.28759241386E+03  0.00000000000E+00 0. -1.
          2   -1    0    0  503    0 -0.00000000000E+00 -0.00000000000E+00 -0.19804121111E+04  0.19804121111E+04  0.00000000000E+00 0. -1.
         24    2    1    2    0    0  0.31692933155E+02 -0.81089022982E+02 -0.48702451157E+03  0.50129261835E+03  0.80756069014E+02 0.  0.
         25    2    1    2    0    0 -0.96875062070E+02 -0.28983110286E+02 -0.11003875323E+03  0.19483166516E+03  0.12500420874E+03 0.  0.
         24    2    1    2    0    0  0.25057048622E+02 -0.24811577474E+02 -0.12846221576E+03  0.15586015625E+03  0.80909686486E+02 0.  0.
        -11    1    5    5    0    0  0.48551716409E+02  0.64580056194E+01 -0.76178120657E+02  0.90565341437E+02  0.00000000000E+00 0.  1.
         12    1    5    5    0    0 -0.23494667787E+02 -0.31269583094E+02 -0.52284095103E+02  0.65294814817E+02  0.00000000000E+00 0. -1.
        -13    1    3    3    0    0  0.12951868550E+02 -0.94343652267E+02 -0.37161480670E+03  0.38362226237E+03  0.00000000000E+00 0.  1.
         14    1    3    3    0    0  0.18741064605E+02  0.13254629285E+02 -0.11540970487E+03  0.11767035598E+03  0.00000000000E+00 0. -1.
          5    1    4    4  501    0 -0.54226445652E+02 -0.46143865094E+02 -0.12694421048E+03  0.14562515672E+03  0.47000000000E+01 0. -1.
         -5    1    4    4    0  501 -0.42648616418E+02  0.17160754808E+02  0.16905457254E+02  0.49206508441E+02  0.47000000000E+01 0. -1.
          1    1    1    2  502    0 -0.17881604933E+02  0.29531218944E+02  0.21997882834E+03  0.22267134886E+03  0.00000000000E+00 0. -1.
          1    1    1    2  503    0  0.58006685226E+02  0.10535249180E+03 -0.11872730450E+04  0.11933487363E+04  0.00000000000E+00 0. -1.
<mgrwt>
<rscale>  0 0.60368377E+02</rscale>
<asrwt>0</asrwt>
<pdfrwt beam="1">  1        2 0.42293002E-01 0.34523104E+02</pdfrwt>
<pdfrwt beam="2">  1        2 0.29123707E+00 0.10556238E+03</pdfrwt>
<totfact> 0.16963947E+02</totfact>
</mgrwt>
</event>
<event>
13    1  0.1595792E-008  0.1672015E+03  0.7546771E-02  0.1193496E+00
          2   -1    0    0  502    0  0.00000000000E+00  0.00000000000E+00  0.38747044978E+04  0.38747044978E+04  0.00000000000E+00 0. -1.
          2   -1    0    0  503    0 -0.00000000000E+00 -0.00000000000E+00 -0.15198492416E+04  0.15198492416E+04  0.00000000000E+00 0. -1.
         24    2    1    2    0    0  0.31948664911E+02 -0.86565454267E+02 -0.15163872186E+03  0.19503716269E+03  0.80813970345E+02 0.  0.
         25    2    1    2    0    0  0.81518365773E+02  0.26402798941E+03  0.16879643030E+03  0.34710373910E+03  0.12503098683E+03 0.  0.
         24    2    1    2    0    0  0.71092322797E+02  0.55957761122E+02  0.23482732597E+03  0.26426232581E+03  0.80655529452E+02 0.  0.
        -11    1    5    5    0    0  0.56626582012E+02  0.93882874766E+00  0.16347446996E+03  0.17300680194E+03  0.00000000000E+00 0.  1.
         12    1    5    5    0    0  0.14465740785E+02  0.55018932375E+02  0.71352856014E+02  0.91255523874E+02  0.00000000000E+00 0. -1.
        -13    1    3    3    0    0  0.19513829460E+02  0.10167141819E+02 -0.13086136678E+02  0.25600923540E+02  0.00000000000E+00 0.  1.
         14    1    3    3    0    0  0.12434835451E+02 -0.96732596086E+02 -0.13855258518E+03  0.16943623915E+03  0.00000000000E+00 0. -1.
          5    1    4    4  501    0  0.95713277742E+02  0.15492380303E+03  0.58714573621E+02  0.19139463795E+03  0.47000000000E+01 0. -1.
         -5    1    4    4    0  501 -0.14194911969E+02  0.10910418638E+03  0.11008185668E+03  0.15570910115E+03  0.47000000000E+01 0. -1.
          1    1    1    2  502    0 -0.23338491841E+03 -0.97716228228E+02  0.33365198187E+04  0.33460994429E+04  0.00000000000E+00 0. -1.
          1    1    1    2  503    0  0.48825564924E+02 -0.13570406804E+03 -0.12336495969E+04  0.12420510689E+04  0.00000000000E+00 0. -1.
<mgrwt>
<rscale>  0 0.15582229E+03</rscale>
<asrwt>0</asrwt>
<pdfrwt beam="1">  1        2 0.56980948E+00 0.14521755E+03</pdfrwt>
<pdfrwt beam="2">  1        2 0.22350724E+00 0.16720147E+03</pdfrwt>
<totfact> 0.19475640E+00</totfact>
</mgrwt>
</event>
<event>
13    1  0.1595792E-008  0.2238192E+03  0.7546771E-02  0.1206306E+00
          2   -1    0    0  502    0  0.00000000000E+00  0.00000000000E+00  0.31120602202E+03  0.31120602202E+03  0.00000000000E+00 0. -1.
          2   -1    0    0  503    0 -0.00000000000E+00 -0.00000000000E+00 -0.15164334781E+04  0.15164334781E+04  0.00000000000E+00 0. -1.
         24    2    1    2    0    0  0.41124644662E+02 -0.26542175574E+01 -0.36960179724E+03  0.38154184896E+03  0.85266715151E+02 0.  0.
         25    2    1    2    0    0  0.72866732180E+02  0.14174877493E+02 -0.27937449072E+03  0.31493747318E+03  0.12500007255E+03 0.  0.
         24    2    1    2    0    0  0.14441946821E+03 -0.75588275128E+02 -0.69043215133E+02  0.19436158869E+03  0.80242703508E+02 0.  0.
        -11    1    3    3    0    0  0.34580244094E+02 -0.36099178638E+02 -0.29894550669E+03  0.30309628825E+03  0.00000000000E+00 0.  1.
         12    1    3    3    0    0  0.65444005685E+01  0.33444961081E+02 -0.70656290550E+02  0.78445560708E+02  0.00000000000E+00 0. -1.
        -11    1    5    5    0    0  0.37072956590E+02  0.14947573602E+02 -0.25179880250E+02  0.47242570171E+02  0.00000000000E+00 0.  1.
         12    1    5    5    0    0  0.10734651162E+03 -0.90535848731E+02 -0.43863334882E+02  0.14711901852E+03  0.00000000000E+00 0. -1.
          5    1    4    4  501    0  0.87553041366E+01  0.55258686591E+02 -0.57725206889E+02  0.80526190179E+02  0.47000000000E+01 0. -1.
         -5    1    4    4    0  501  0.64111428043E+02 -0.41083809098E+02 -0.22164928383E+03  0.23441128300E+03  0.47000000000E+01 0. -1.
          1    1    1    2  502    0 -0.27549471749E+03 -0.28764795598E+02  0.13453191590E+03  0.30793439111E+03  0.00000000000E+00 0. -1.
          1    1    1    2  503    0  0.17083872433E+02  0.92832410790E+02 -0.62173986888E+03  0.62886419818E+03  0.00000000000E+00 0. -1.
<mgrwt>
<rscale>  0 0.14534987E+03</rscale>
<asrwt>0</asrwt>
<pdfrwt beam="1">  1        2 0.45765591E-01 0.22381924E+03</pdfrwt>
<pdfrwt beam="2">  1        2 0.22300493E+00 0.94391288E+02</pdfrwt>
<totfact> 0.26976888E+02</totfact>
</mgrwt>
</event>
<event>
13    1  0.1595792E-008  0.1054639E+03  0.7546771E-02  0.1332617E+00
          2   -1    0    0  503    0  0.00000000000E+00  0.00000000000E+00  0.11554618527E+04  0.11554618527E+04  0.00000000000E+00 0. -1.
          2   -1    0    0  502    0 -0.00000000000E+00 -0.00000000000E+00 -0.18871681056E+04  0.18871681056E+04  0.00000000000E+00 0. -1.
         24    2    1    2    0    0 -0.86013337692E+02  0.18548610329E+03 -0.55214158582E+03  0.59502362501E+03  0.85961588772E+02 0.  0.
         25    2    1    2    0    0  0.14487275223E+03 -0.24448217334E+03 -0.59360859835E+03  0.66989207333E+03  0.12499829778E+03 0.  0.
         24    2    1    2    0    0  0.95501141222E+02  0.11332671466E+03 -0.42719565219E+02  0.17374736652E+03  0.79998586789E+02 0.  0.
        -11    1    5    5    0    0  0.16164573161E+02  0.77685535028E+02 -0.34033417265E+02  0.86340079157E+02  0.00000000000E+00 0.  1.
         12    1    5    5    0    0  0.79336568061E+02  0.35641179635E+02 -0.86861479541E+01  0.87407287360E+02  0.00000000000E+00 0. -1.
        -13    1    3    3    0    0 -0.97406612719E+01  0.26795565977E+01 -0.11091716926E+03  0.11137629435E+03  0.00000000000E+00 0.  1.
         14    1    3    3    0    0 -0.76272676420E+02  0.18280654669E+03 -0.44122441656E+03  0.48364733066E+03  0.00000000000E+00 0. -1.
          5    1    4    4  501    0  0.20170496284E+02 -0.13048193865E+03 -0.34345376875E+03  0.36798772603E+03  0.47000000000E+01 0.  1.
         -5    1    4    4    0  501  0.12470225595E+03 -0.11400023470E+03 -0.25015482960E+03  0.30190434730E+03  0.47000000000E+01 0.  1.
          1    1    1    2  502    0 -0.53097353999E+02 -0.25290193616E+02 -0.56939043448E+03  0.57241976711E+03  0.00000000000E+00 0. -1.
          1    1    1    2  503    0 -0.10126320176E+03 -0.29040450992E+02  0.10261539310E+04  0.10315471263E+04  0.00000000000E+00 0. -1.
<mgrwt>
<rscale>  0 0.78756639E+02</rscale>
<asrwt>0</asrwt>
<pdfrwt beam="1">  1        2 0.16992086E+00 0.10546392E+03</pdfrwt>
<pdfrwt beam="2">  1        2 0.27752472E+00 0.58812608E+02</pdfrwt>
<totfact> 0.40937412E+01</totfact>
</mgrwt>
</event>
<event>
13    1  0.1595792E-008  0.4918632E+02  0.7546771E-02  0.1535771E+00
          4   -1    0    0  503    0  0.00000000000E+00  0.00000000000E+00  0.68383865461E+03  0.68383865461E+03  0.00000000000E+00 0. -1.
         -1   -1    0    0    0  501 -0.00000000000E+00 -0.00000000000E+00 -0.34819641088E+03  0.34819641088E+03  0.00000000000E+00 0.  1.
         24    2    1    2    0    0 -0.79902340473E+01 -0.24267802023E+02 -0.59793126057E+02  0.10334312487E+03  0.80323181460E+02 0.  0.
         25    2    1    2    0    0  0.63649647706E+02  0.12537055089E+03  0.24261816707E+03  0.30701223881E+03  0.12499554835E+03 0.  0.
         24    2    1    2    0    0 -0.68170783304E+02 -0.29347488049E+02  0.18058956763E+03  0.21121752994E+03  0.80571224798E+02 0.  0.
        -11    1    5    5    0    0 -0.12410559260E+02  0.25576858236E+02  0.71590483529E+02  0.77028533611E+02  0.00000000000E+00 0.  1.
         12    1    5    5    0    0 -0.55760224044E+02 -0.54924346286E+02  0.10899908410E+03  0.13418899632E+03  0.00000000000E+00 0. -1.
        -11    1    3    3    0    0  0.34316960940E+02 -0.16891533412E+01 -0.14212378563E+02  0.37181968097E+02  0.00000000000E+00 0.  1.
         12    1    3    3    0    0 -0.42307194987E+02 -0.22578648681E+02 -0.45580747494E+02  0.66161156777E+02  0.00000000000E+00 0. -1.
          5    1    4    4  502    0  0.52336889310E+02  0.15605949944E+02  0.15986983437E+03  0.16900635964E+03  0.47000000000E+01 0. -1.
         -5    1    4    4    0  502  0.11312758397E+02  0.10976460094E+03  0.82748332697E+02  0.13800587918E+03  0.47000000000E+01 0. -1.
          3    1    1    2  503    0  0.14681882285E+02 -0.22739976516E+02  0.18761493106E+03  0.18955744923E+03  0.00000000000E+00 0. -1.
         -2    1    1    2    0  501 -0.21705126396E+01 -0.49015284300E+02 -0.21538729597E+03  0.22090472264E+03  0.00000000000E+00 0.  1.
<mgrwt>
<rscale>  0 0.36487862E+02</rscale>
<asrwt>0</asrwt>
<pdfrwt beam="1">  1        4 0.10056451E+00 0.27067770E+02</pdfrwt>
<pdfrwt beam="2">  1       -1 0.51205355E-01 0.49186323E+02</pdfrwt>
<totfact> 0.11637827E+01</totfact>
</mgrwt>
</event>
<event>
13    1  0.1595792E-008  0.8808818E+02  0.7546771E-02  0.1399314E+00
          2   -1    0    0  503    0  0.00000000000E+00  0.00000000000E+00  0.28524140583E+04  0.28524140583E+04  0.00000000000E+00 0. -1.
          2   -1    0    0  502    0 -0.00000000000E+00 -0.00000000000E+00 -0.76062310584E+03  0.76062310584E+03  0.00000000000E+00 0. -1.
         24    2    1    2    0    0 -0.26289459057E+02 -0.65043769465E+02 -0.36215446024E+03  0.37758169363E+03  0.80562116931E+02 0.  0.
         25    2    1    2    0    0  0.21703381235E+02 -0.13315983597E+02  0.17853463385E+02  0.12881027208E+03  0.12499995145E+03 0.  0.
         24    2    1    2    0    0  0.27191775205E+02 -0.73343156166E+02  0.75670511141E+03  0.76490767591E+03  0.79765379908E+02 0.  0.
        -13    1    3    3    0    0 -0.15103879860E+02 -0.81702661164E+02 -0.32386407376E+03  0.33435219500E+03  0.00000000000E+00 0.  1.
         14    1    3    3    0    0 -0.11185579197E+02  0.16658891699E+02 -0.38290386484E+02  0.43229498629E+02  0.00000000000E+00 0. -1.
        -13    1    5    5    0    0 -0.14037033347E+02  0.10775969894E+02  0.99855863302E+02  0.10141180044E+03  0.00000000000E+00 0.  1.
         14    1    5    5    0    0  0.41228808552E+02 -0.84119126059E+02  0.65684924811E+03  0.66349587547E+03  0.00000000000E+00 0. -1.
          5    1    4    4  501    0  0.14520158703E+02  0.21918331401E+02 -0.47256647990E+02  0.54281940269E+02  0.47000000000E+01 0. -1.
         -5    1    4    4    0  501  0.71832225322E+01 -0.35234314998E+02  0.65110111375E+02  0.74528331811E+02  0.47000000000E+01 0. -1.
          1    1    1    2  502    0 -0.36302896396E+02  0.17705297656E+02 -0.32767803452E+03  0.33015795032E+03  0.00000000000E+00 0. -1.
          1    1    1    2  503    0  0.13697199013E+02  0.13399761157E+03  0.20070648724E+04  0.20115795722E+04  0.00000000000E+00 0. -1.
<mgrwt>
<rscale>  0 0.59648215E+02</rscale>
<asrwt>0</asrwt>
<pdfrwt beam="1">  1        2 0.41947265E+00 0.88088177E+02</pdfrwt>
<pdfrwt beam="2">  1        2 0.11185634E+00 0.40390319E+02</pdfrwt>
<totfact> 0.23374709E+01</totfact>
</mgrwt>
</event>
<event>
13    1  0.1595792E-008  0.5201499E+02  0.7546771E-02  0.1548507E+00
          2   -1    0    0  502    0  0.00000000000E+00  0.00000000000E+00  0.26421924893E+04  0.26421924893E+04  0.00000000000E+00 0. -1.
          2   -1    0    0  503    0 -0.00000000000E+00 -0.00000000000E+00 -0.12910818674E+04  0.12910818674E+04  0.00000000000E+00 0. -1.
         24    2    1    2    0    0  0.27932571182E+03  0.16477371486E+03 -0.11643309360E+03  0.35235156301E+03  0.73632386024E+02 0.  0.
         25    2    1    2    0    0 -0.41039115250E+03  0.40255544132E+03 -0.96511936480E+02  0.59616510771E+03  0.12500600138E+03 0.  0.
         24    2    1    2    0    0  0.17848815048E+03 -0.54529617915E+03  0.11019944304E+04  0.12449691576E+04  0.79690249513E+02 0.  0.
        -11    1    3    3    0    0  0.26027569797E+03  0.16216090238E+03 -0.89864146568E+02  0.31955463078E+03  0.00000000000E+00 0.  1.
         12    1    3    3    0    0  0.19050013859E+02  0.26128124804E+01 -0.26568947036E+02  0.32796932229E+02  0.00000000000E+00 0. -1.
        -13    1    5    5    0    0  0.95173045970E+02 -0.37887989261E+03  0.79892093808E+03  0.88931577463E+03  0.00000000000E+00 0.  1.
         14    1    5    5    0    0  0.83315104511E+02 -0.16641628653E+03  0.30307349229E+03  0.35565338293E+03  0.00000000000E+00 0. -1.
          5    1    4    4  501    0 -0.17627550238E+03  0.13918231560E+03 -0.94571415180E+02  0.24374292253E+03  0.47000000000E+01 0. -1.
         -5    1    4    4    0  501 -0.23411565012E+03  0.26337312572E+03 -0.19405213001E+01  0.35242218518E+03  0.47000000000E+01 0. -1.
          1    1    1    2  502    0  0.45845017755E+01 -0.23114814025E+02  0.10997395628E+04  0.10999920083E+04  0.00000000000E+00 0. -1.
          1    1    1    2  503    0 -0.52007211579E+02  0.10818369814E+01 -0.63767834111E+03  0.63979652012E+03  0.00000000000E+00 0. -1.
<mgrwt>
<rscale>  0 0.35010521E+02</rscale>
<asrwt>0</asrwt>
<pdfrwt beam="1">  1        2 0.38855772E+00 0.23565065E+02</pdfrwt>
<pdfrwt beam="2">  1        2 0.18986498E+00 0.52014987E+02</pdfrwt>
<totfact> 0.18325682E+01</totfact>
</mgrwt>
</event>
<event>
13    1  0.1595792E-008  0.1562637E+03  0.7546771E-02  0.1256841E+00
          2   -1    0    0  503    0  0.00000000000E+00  0.00000000000E+00  0.19334957645E+04  0.19334957645E+04  0.00000000000E+00 0. -1.
          2   -1    0    0  502    0 -0.00000000000E+00 -0.00000000000E+00 -0.11394056970E+04  0.11394056970E+04  0.00000000000E+00 0. -1.
         24    2    1    2    0    0 -0.73670054507E+02  0.43075257577E+02 -0.35958198958E+03  0.37845272202E+03  0.81513807577E+02 0.  0.
         25    2    1    2    0    0  0.99741076101E+02 -0.49993654714E+02 -0.11329350595E+03  0.20225525767E+03  0.12499649191E+03 0.  0.
         24    2    1    2    0    0  0.66064535486E+02 -0.13019737860E+03  0.35067034557E+03  0.38784664916E+03  0.78354653727E+02 0.  0.
        -13    1    3    3    0    0 -0.50756189737E+02 -0.17027095552E+02 -0.15370833467E+03  0.16276475333E+03  0.00000000000E+00 0.  1.
         14    1    3    3    0    0 -0.22913864770E+02  0.60102353130E+02 -0.20587365491E+03  0.21568796869E+03  0.00000000000E+00 0. -1.
        -13    1    5    5    0    0  0.54430644538E+02 -0.77641254992E+02  0.13123627424E+03  0.16190682264E+03  0.00000000000E+00 0.  1.
         14    1    5    5    0    0  0.11633890948E+02 -0.52556123603E+02  0.21943407133E+03  0.22593982652E+03  0.00000000000E+00 0. -1.
          5    1    4    4  501    0  0.10884134262E+03 -0.40851416530E+02 -0.33200882948E+02  0.12099448220E+03  0.47000000000E+01 0.  1.
         -5    1    4    4    0  501 -0.91002665167E+01 -0.91422381842E+01 -0.80092622999E+02  0.81260775461E+02  0.47000000000E+01 0.  1.
          1    1    1    2  502    0  0.10354370907E+03 -0.58767020454E+02 -0.57518860237E+03  0.58738129922E+03  0.00000000000E+00 0. -1.
          1    1    1    2  503    0 -0.19567926615E+03  0.19588279619E+03  0.14914838198E+04  0.15169655335E+04  0.00000000000E+00 0. -1.
<mgrwt>
<rscale>  0 0.11203831E+03</rscale>
<asrwt>0</asrwt>
<pdfrwt beam="1">  1        2 0.28433761E+00 0.15626374E+03</pdfrwt>
<pdfrwt beam="2">  1        2 0.16755966E+00 0.80329464E+02</pdfrwt>
<totfact> 0.36555351E+01</totfact>
</mgrwt>
</event>
<event>
13    1  0.1595792E-008  0.4026035E+02  0.7546771E-02  0.1641870E+00
          2   -1    0    0  502    0  0.00000000000E+00  0.00000000000E+00  0.52886027341E+03  0.52886027341E+03  0.00000000000E+00 0. -1.
          2   -1    0    0  503    0 -0.00000000000E+00 -0.00000000000E+00 -0.10684870218E+04  0.10684870218E+04  0.00000000000E+00 0. -1.
         24    2    1    2    0    0 -0.27988602661E+02  0.22535771946E+02 -0.37763074772E+03  0.38750817435E+03  0.79160474160E+02 0.  0.
         25    2    1    2    0    0 -0.14600892855E+02 -0.70927754612E+02 -0.30549247419E+03  0.33792791132E+03  0.12500275601E+03 0.  0.
         24    2    1    2    0    0  0.57304922157E+02  0.28503464273E+02  0.36291662877E+02  0.10975667638E+03  0.81444101301E+02 0.  0.
        -11    1    3    3    0    0  0.23744996059E+02  0.25547308540E+02 -0.13814972792E+03  0.14248451542E+03  0.00000000000E+00 0.  1.
         12    1    3    3    0    0 -0.51733598720E+02 -0.30115365938E+01 -0.23948101980E+03  0.24502365893E+03  0.00000000000E+00 0. -1.
        -13    1    5    5    0    0  0.71953251637E+02  0.31107351325E+02  0.93042528890E+01  0.78939893903E+02  0.00000000000E+00 0.  1.
         14    1    5    5    0    0 -0.14648329481E+02 -0.26038870520E+01  0.26987409988E+02  0.30816782477E+02  0.00000000000E+00 0. -1.
          5    1    4    4  501    0  0.18562351305E+02 -0.55189943079E+02 -0.29315364740E+03  0.29891744962E+03  0.47000000000E+01 0. -1.
         -5    1    4    4    0  501 -0.33163244160E+02 -0.15737811533E+02 -0.12338826794E+02  0.39010461696E+02  0.47000000000E+01 0. -1.
          1    1    1    2  502    0 -0.15545222219E+02  0.37160313331E+02  0.43351708003E+03  0.43538442956E+03  0.00000000000E+00 0. -1.
          1    1    1    2  503    0  0.82979557817E+00 -0.17271794938E+02 -0.32631226936E+03  0.32677010358E+03  0.00000000000E+00 0. -1.
<mgrwt>
<rscale>  0 0.26385043E+02</rscale>
<asrwt>0</asrwt>
<pdfrwt beam="1">  1        2 0.77773570E-01 0.40260346E+02</pdfrwt>
<pdfrwt beam="2">  1        2 0.15713044E+00 0.17291717E+02</pdfrwt>
<totfact> 0.29069033E+02</totfact>
</mgrwt>
</event>
<event>
13    1  0.1595792E-008  0.3200010E+03  0.7546771E-02  0.1337542E+00
          2   -1    0    0  503    0  0.00000000000E+00  0.00000000000E+00  0.32935394170E+04  0.32935394170E+04  0.00000000000E+00 0. -1.
          2   -1    0    0  502    0 -0.00000000000E+00 -0.00000000000E+00 -0.46972974849E+04  0.46972974849E+04  0.00000000000E+00 0. -1.
         24    2    1    2    0    0  0.69125257629E+02  0.65258728985E+02 -0.35188119237E+04  0.35216396155E+04  0.10426516288E+03 0.  0.
         25    2    1    2    0    0 -0.42065676942E+02  0.14470168450E+03 -0.29816891619E+03  0.35670350016E+03  0.12499834308E+03 0.  0.
         24    2    1    2    0    0  0.24224730148E+03 -0.33803811561E+03  0.22048770623E+03  0.47768127480E+03  0.81308357588E+02 0.  0.
        -11    1    5    5    0    0  0.84733510811E+02 -0.10914254238E+03  0.31715391579E+02  0.14176645751E+03  0.00000000000E+00 0.  1.
         12    1    5    5    0    0  0.15751379067E+03 -0.22889557323E+03  0.18877231465E+03  0.33591481729E+03  0.00000000000E+00 0. -1.
        -13    1    3    3    0    0  0.79445277382E+02  0.15076229767E+02 -0.15002829365E+04  0.15024605600E+04  0.00000000000E+00 0.  1.
         14    1    3    3    0    0 -0.10320019753E+02  0.50182499218E+02 -0.20185289872E+04  0.20191790555E+04  0.00000000000E+00 0. -1.
          5    1    4    4  501    0  0.32151853164E+02  0.10806368265E+03 -0.16820525481E+03  0.20255023801E+03  0.47000000000E+01 0.  1.
         -5    1    4    4    0  501 -0.74217530106E+02  0.36638001845E+02 -0.12996366138E+03  0.15415326215E+03  0.47000000000E+01 0.  1.
          1    1    1    2  502    0  0.16311093298E+02 -0.88713958699E+01 -0.71230890484E+03  0.71255086089E+03  0.00000000000E+00 0. -1.
          1    1    1    2  503    0 -0.28561797546E+03  0.13694909800E+03  0.29050439705E+04  0.29222616505E+04  0.00000000000E+00 0. -1.
<mgrwt>
<rscale>  0 0.77081968E+02</rscale>
<asrwt>0</asrwt>
<pdfrwt beam="1">  1        2 0.48434403E+00 0.32000096E+03</pdfrwt>
<pdfrwt beam="2">  1        2 0.69077904E+00 0.18567537E+02</pdfrwt>
<totfact> 0.92029978E-02</totfact>
</mgrwt>
</event>
<event>
13    1  0.1595792E-008  0.7408466E+02  0.7546771E-02  0.1360458E+00
          2   -1    0    0  503    0  0.00000000000E+00  0.00000000000E+00  0.78098174375E+03  0.78098174375E+03  0.00000000000E+00 0. -1.
          2   -1    0    0  502    0 -0.00000000000E+00 -0.00000000000E+00 -0.19047989285E+04  0.19047989285E+04  0.00000000000E+00 0. -1.
         24    2    1    2    0    0  0.11268322274E+03 -0.85786474414E+02  0.42165485976E+02  0.16896660126E+03  0.81944836655E+02 0.  0.
         25    2    1    2    0    0 -0.18981968897E+03 -0.15894331959E+03  0.20471608019E+03  0.34471468588E+03  0.12500019203E+03 0.  0.
         24    2    1    2    0    0  0.17673619985E+03  0.14975392542E+03  0.10419513365E+03  0.26258227817E+03  0.66565038984E+02 0.  0.
        -11    1    5    5    0    0  0.67376393400E+02  0.53332950541E+02  0.46734274053E+01  0.86057091077E+02  0.00000000000E+00 0.  1.
         12    1    5    5    0    0  0.10935980645E+03  0.96420974883E+02  0.99521706242E+02  0.17652518709E+03  0.00000000000E+00 0. -1.
        -13    1    3    3    0    0  0.75293139096E+02 -0.58870561035E+02 -0.13702165181E+02  0.96553348373E+02  0.00000000000E+00 0.  1.
         14    1    3    3    0    0  0.37390083645E+02 -0.26915913379E+02  0.55867651156E+02  0.72413252887E+02  0.00000000000E+00 0. -1.
          5    1    4    4  501    0 -0.15218635964E+03 -0.58213872416E+02  0.15920731345E+03  0.22785653745E+03  0.47000000000E+01 0.  1.
         -5    1    4    4    0  501 -0.37633329331E+02 -0.10072944717E+03  0.45508766745E+02  0.11685814843E+03  0.47000000000E+01 0.  1.
          1    1    1    2  502    0 -0.51961192769E+02  0.40593608225E+02 -0.16855298856E+04  0.16868191372E+04  0.00000000000E+00 0. -1.
          1    1    1    2  503    0 -0.47638540851E+02  0.54382260353E+02  0.21063600098E+03  0.22269796973E+03  0.00000000000E+00 0. -1.
<mgrwt>
<rscale>  0 0.69892680E+02</rscale>
<asrwt>0</asrwt>
<pdfrwt beam="1">  1        2 0.11485026E+00 0.74084657E+02</pdfrwt>
<pdfrwt beam="2">  1        2 0.28011749E+00 0.65937899E+02</pdfrwt>
<totfact> 0.66932390E+01</totfact>
</mgrwt>
</event>
<event>
13    1  0.1595792E-008  0.8337057E+02  0.7546771E-02  0.1420025E+00
          2   -1    0    0  502    0  0.00000000000E+00  0.00000000000E+00  0.35646653852E+04  0.35646653852E+04  0.00000000000E+00 0. -1.
          2   -1    0    0  503    0 -0.00000000000E+00 -0.00000000000E+00 -0.18686256713E+04  0.18686256713E+04  0.00000000000E+00 0. -1.
         24    2    1    2    0    0 -0.74650543106E+02 -0.62890730078E+02 -0.16496972534E+03  0.20791421410E+03  0.80531749213E+02 0.  0.
         25    2    1    2    0    0  0.16656932359E+03  0.11960889529E+03  0.11080601241E+04  0.11337873998E+04  0.12500000702E+03 0.  0.
         24    2    1    2    0    0 -0.25519953449E+02  0.23587451076E+02  0.12942697267E+04  0.12972332027E+04  0.80450114022E+02 0.  0.
        -11    1    3    3    0    0 -0.74500627579E+01 -0.57357784073E+02 -0.61613212857E+02  0.84508028183E+02  0.00000000000E+00 0.  1.
         12    1    3    3    0    0 -0.67200480348E+02 -0.55329460057E+01 -0.10335651248E+03  0.12340618592E+03  0.00000000000E+00 0. -1.
        -11    1    5    5    0    0 -0.14485182572E+01 -0.29376945869E+02  0.45430853397E+03  0.45525964810E+03  0.00000000000E+00 0.  1.
         12    1    5    5    0    0 -0.24071435192E+02  0.52964396945E+02  0.83996119276E+03  0.84197355462E+03  0.00000000000E+00 0. -1.
          5    1    4    4  501    0  0.74880978525E+02  0.75612994014E+02  0.28147464537E+03  0.30095606290E+03  0.47000000000E+01 0. -1.
         -5    1    4    4    0  501  0.91688345069E+02  0.43995901271E+02  0.82658547876E+03  0.83283133686E+03  0.47000000000E+01 0. -1.
          1    1    1    2  502    0  0.42509504905E+01 -0.36054577462E+02  0.11251832660E+04  0.11257687975E+04  0.00000000000E+00 0. -1.
          1    1    1    2  503    0 -0.70649777529E+02 -0.44251038821E+02 -0.16665036777E+04  0.16685874425E+04  0.00000000000E+00 0. -1.
<mgrwt>
<rscale>  0 0.55015555E+02</rscale>
<asrwt>0</asrwt>
<pdfrwt beam="1">  1        2 0.52421550E+00 0.36304313E+02</pdfrwt>
<pdfrwt beam="2">  1        2 0.27479789E+00 0.83370571E+02</pdfrwt>
<totfact> 0.28545431E+00</totfact>
</mgrwt>
</event>
<event>
13    1  0.1595792E-008  0.9164056E+02  0.7546771E-02  0.1341666E+00
          2   -1    0    0  503    0  0.00000000000E+00  0.00000000000E+00  0.82584037988E+03  0.82584037988E+03  0.00000000000E+00 0. -1.
         -1   -1    0    0    0  501 -0.00000000000E+00 -0.00000000000E+00 -0.90852071024E+03  0.90852071024E+03  0.00000000000E+00 0.  1.
         24    2    1    2    0    0  0.86147197706E+02  0.15746084875E+01 -0.18117962934E+03  0.21955875338E+03  0.89197360015E+02 0.  0.
         25    2    1    2    0    0 -0.10488548618E+02  0.53977931654E+02  0.15470401515E+03  0.20635525937E+03  0.12500213602E+03 0.  0.
         24    2    1    2    0    0 -0.88353013898E+02 -0.66861680110E+01  0.12260349605E+03  0.17140002201E+03  0.80593984838E+02 0.  0.
        -11    1    5    5    0    0 -0.12885308942E+01  0.22004562432E+02  0.49376973892E+02  0.54073529850E+02  0.00000000000E+00 0.  1.
         12    1    5    5    0    0 -0.87064483004E+02 -0.28690730443E+02  0.73226522163E+02  0.11732649216E+03  0.00000000000E+00 0. -1.
        -13    1    3    3    0    0  0.23197200047E+02 -0.39996560559E+02 -0.90296947392E+02  0.10144640780E+03  0.00000000000E+00 0.  1.
         14    1    3    3    0    0  0.62949997659E+02  0.41571169046E+02 -0.90882681947E+02  0.11811234558E+03  0.00000000000E+00 0. -1.
          5    1    4    4  502    0 -0.22575243846E+02  0.62245579837E+02  0.17983512462E+02  0.68772454983E+02  0.47000000000E+01 0.  1.
         -5    1    4    4    0  502  0.12086695228E+02 -0.82676481832E+01  0.13672050269E+03  0.13758280439E+03  0.47000000000E+01 0.  1.
          1    1    1    2  503    0  0.52307313891E+02  0.34317621424E+02  0.47382769614E+03  0.47793978685E+03  0.00000000000E+00 0. -1.
         -2    1    1    2    0  501 -0.39612949081E+02 -0.83183993554E+02 -0.65263590836E+03  0.65910726851E+03  0.00000000000E+00 0.  1.
<mgrwt>
<rscale>  0 0.75716802E+02</rscale>
<asrwt>0</asrwt>
<pdfrwt beam="1">  1        2 0.12144711E+00 0.62560005E+02</pdfrwt>
<pdfrwt beam="2">  1       -1 0.13360599E+00 0.91640562E+02</pdfrwt>
<totfact> 0.23840220E+01</totfact>
</mgrwt>
</event>
<event>
13    1  0.1595792E-008  0.1133544E+03  0.7546771E-02  0.1365094E+00
          2   -1    0    0  503    0  0.00000000000E+00  0.00000000000E+00  0.30661887100E+04  0.30661887100E+04  0.00000000000E+00 0. -1.
         -1   -1    0    0    0  501 -0.00000000000E+00 -0.00000000000E+00 -0.49727435580E+03  0.49727435580E+03  0.00000000000E+00 0.  1.
         24    2    1    2    0    0  0.20581263942E+02 -0.78674698135E+02  0.24492811003E+03  0.27023479040E+03  0.80148401797E+02 0.  0.
         25    2    1    2    0    0  0.10793954913E+03  0.21856204980E+03  0.79518467565E+03  0.84104307048E+03  0.12495784143E+03 0.  0.
         24    2    1    2    0    0 -0.82276579908E+01 -0.18044232581E+03  0.12023290947E+04  0.12184451009E+04  0.79912981931E+02 0.  0.
        -13    1    3    3    0    0 -0.29973013370E+02 -0.39241765530E+02  0.92087254302E+02  0.10449095701E+03  0.00000000000E+00 0.  1.
         14    1    3    3    0    0  0.50554277312E+02 -0.39432932605E+02  0.15284085573E+03  0.16574383339E+03  0.00000000000E+00 0. -1.
        -13    1    5    5    0    0 -0.38740334789E+02 -0.60666311516E+02  0.36346938561E+03  0.37052828390E+03  0.00000000000E+00 0.  1.
         14    1    5    5    0    0  0.30512676798E+02 -0.11977601429E+03  0.83885970910E+03  0.84791681703E+03  0.00000000000E+00 0. -1.
          5    1    4    4  502    0  0.83249184721E+02  0.91759940654E+02  0.55072640818E+03  0.56451038974E+03  0.47000000000E+01 0.  1.
         -5    1    4    4    0  502  0.24690364409E+02  0.12680210915E+03  0.24445826747E+03  0.27653268073E+03  0.47000000000E+01 0.  1.
          1    1    1    2  503    0 -0.30282437387E+02 -0.28310687943E+02  0.77246320165E+03  0.77357476625E+03  0.00000000000E+00 0. -1.
         -2    1    1    2    0  501 -0.90010717694E+02  0.68865662083E+02 -0.44599072786E+03  0.46016533773E+03  0.00000000000E+00 0.  1.
<mgrwt>
<rscale>  0 0.68550074E+02</rscale>
<asrwt>0</asrwt>
<pdfrwt beam="1">  1        2 0.45091010E+00 0.41455049E+02</pdfrwt>
<pdfrwt beam="2">  1       -1 0.73128583E-01 0.11335441E+03</pdfrwt>
<totfact> 0.71549886E+00</totfact>
</mgrwt>
</event>
<event>
13    1  0.1595792E-008  0.6626382E+02  0.7546771E-02  0.1529839E+00
         -1   -1    0    0    0  501 -0.00000000000E+00  0.00000000000E+00  0.41574132781E+03  0.41574132781E+03  0.00000000000E+00 0.  1.
          2   -1    0    0  503    0  0.00000000000E+00 -0.00000000000E+00 -0.18025099031E+04  0.18025099031E+04  0.00000000000E+00 0. -1.
         24    2    1    2    0    0  0.71999241565E+02  0.33291626576E+02 -0.15728976761E+01  0.10922699603E+03  0.75072228345E+02 0.  0.
         25    2    1    2    0    0 -0.15166946363E+03  0.37887633920E+02 -0.15722998867E+03  0.25453254514E+03  0.12500579266E+03 0.  0.
         24    2    1    2    0    0 -0.51573092427E+01 -0.73416505666E+02 -0.67677779386E+03  0.68638820140E+03  0.87658425758E+02 0.  0.
        -11    1    5    5    0    0 -0.26625254614E+02 -0.80854826390E+02 -0.41586482304E+03  0.42448787754E+03  0.00000000000E+00 0.  1.
         12    1    5    5    0    0  0.21467945371E+02  0.74383207240E+01 -0.26091297082E+03  0.26190032386E+03  0.00000000000E+00 0. -1.
        -13    1    3    3    0    0  0.77761798078E+02  0.42165678712E+01  0.74807357131E+01  0.78234507040E+02  0.00000000000E+00 0.  1.
         14    1    3    3    0    0 -0.57625565136E+01  0.29075058705E+02 -0.90536333892E+01  0.30992488990E+02  0.00000000000E+00 0. -1.
          5    1    4    4  502    0  0.31451236425E+01 -0.64692128696E+01 -0.71531648857E+02  0.72045883339E+02  0.47000000000E+01 0. -1.
         -5    1    4    4    0  502 -0.15481458727E+03  0.44356846789E+02 -0.85698339815E+02  0.18248666181E+03  0.47000000000E+01 0. -1.
          1    1    1    2  503    0  0.65329496099E+02  0.97370586070E+01 -0.85802122902E+03  0.86055980781E+03  0.00000000000E+00 0. -1.
         -2    1    1    2    0  501  0.19498035211E+02 -0.74998134368E+01  0.30683333397E+03  0.30754368050E+03  0.00000000000E+00 0.  1.
<mgrwt>
<rscale>  0 0.37206133E+02</rscale>
<asrwt>0</asrwt>
<pdfrwt beam="2">  1        2 0.26507499E+00 0.66263820E+02</pdfrwt>
<pdfrwt beam="1">  1       -1 0.61138429E-01 0.20890682E+02</pdfrwt>
<totfact> 0.39650610E+01</totfact>
</mgrwt>
</event>
<event>
13    1  0.1595792E-008  0.5967961E+02  0.7546771E-02  0.1456833E+00
          2   -1    0    0  502    0  0.00000000000E+00  0.00000000000E+00  0.86058488203E+03  0.86058488203E+03  0.00000000000E+00 0. -1.
          2   -1    0    0  503    0 -0.00000000000E+00 -0.00000000000E+00 -0.21039138909E+04  0.21039138909E+04  0.00000000000E+00 0. -1.
         24    2    1    2    0    0 -0.80774450240E+02  0.85153912561E+02 -0.11007647046E+03  0.18007439903E+03  0.80834764806E+02 0.  0.
         25    2    1    2    0    0  0.70365690122E+02 -0.45111116833E+02  0.45186539092E+02  0.15701040429E+03  0.12499640208E+03 0.  0.
         24    2    1    2    0    0 -0.17560864310E+02  0.10958256217E+02  0.10103433021E+03  0.13265871502E+03  0.83438189432E+02 0.  0.
        -11    1    5    5    0    0  0.25975539141E+02 -0.19181174030E+02  0.30126264447E+02  0.44161497714E+02  0.00000000000E+00 0.  1.
         12    1    5    5    0    0 -0.43536403451E+02  0.30139430246E+02  0.70908065765E+02  0.88497217310E+02  0.00000000000E+00 0. -1.
        -11    1    3    3    0    0 -0.15661591562E+02  0.68708558841E+02 -0.32909777737E+02  0.77776635174E+02  0.00000000000E+00 0.  1.
         12    1    3    3    0    0 -0.65112858679E+02  0.16445353720E+02 -0.77166692724E+02  0.10229776386E+03  0.00000000000E+00 0. -1.
          5    1    4    4  501    0  0.80873663512E+02 -0.79862748721E+02  0.34531672579E+02  0.11888286039E+03  0.47000000000E+01 0. -1.
         -5    1    4    4    0  501 -0.10507973390E+02  0.34751631888E+02  0.10654866514E+02  0.38127543903E+02  0.47000000000E+01 0. -1.
          1    1    1    2  502    0  0.37673284976E+02  0.79106627164E+01  0.60655837194E+03  0.60777867152E+03  0.00000000000E+00 0. -1.
          1    1    1    2  503    0 -0.97036605477E+01 -0.58911714661E+02 -0.18860317796E+04  0.18869765830E+04  0.00000000000E+00 0. -1.
<mgrwt>
<rscale>  0 0.47930771E+02</rscale>
<asrwt>0</asrwt>
<pdfrwt beam="1">  1        2 0.12655660E+00 0.38494870E+02</pdfrwt>
<pdfrwt beam="2">  1        2 0.30939910E+00 0.59679610E+02</pdfrwt>
<totfact> 0.49810734E+01</totfact>
</mgrwt>
</event>
<event>
13    1  0.1595792E-008  0.8305866E+02  0.7546771E-02  0.1344613E+00
         -1   -1    0    0    0  501 -0.00000000000E+00  0.00000000000E+00  0.11103022408E+04  0.11103022408E+04  0.00000000000E+00 0.  1.
          2   -1    0    0  503    0  0.00000000000E+00 -0.00000000000E+00 -0.15758520378E+04  0.15758520378E+04  0.00000000000E+00 0. -1.
         24    2    1    2    0    0 -0.86192751705E+02 -0.12343869479E+03  0.42632808882E+03  0.45945473541E+03  0.81711154434E+02 0.  0.
         25    2    1    2    0    0  0.15912149205E+03  0.44137892314E+02 -0.15794948765E+03  0.26046372261E+03  0.12500202950E+03 0.  0.
         24    2    1    2    0    0 -0.39373429809E+02 -0.53241227028E+02  0.33103672783E+00  0.10433684064E+03  0.80629842485E+02 0.  0.
        -11    1    3    3    0    0 -0.85055259842E+02 -0.13482583608E+03  0.40512731717E+03  0.43536254595E+03  0.00000000000E+00 0.  1.
         12    1    3    3    0    0 -0.11374918628E+01  0.11387141288E+02  0.21200771652E+02  0.24092189463E+02  0.00000000000E+00 0. -1.
        -11    1    5    5    0    0 -0.64176435894E+02 -0.34033101611E+02 -0.35378555312E+01  0.72728146897E+02  0.00000000000E+00 0.  1.
         12    1    5    5    0    0  0.24803006085E+02 -0.19208125417E+02  0.38688922590E+01  0.31608693743E+02  0.00000000000E+00 0. -1.
          5    1    4    4  502    0  0.16207452193E+03  0.59470456162E+02 -0.16830221444E+03  0.24114852519E+03  0.47000000000E+01 0.  1.
         -5    1    4    4    0  502 -0.29530298749E+01 -0.15332563849E+02  0.10352726795E+02  0.19315197428E+02  0.47000000000E+01 0.  1.
          1    1    1    2  503    0  0.14842900482E+02  0.65634606952E+02 -0.12941768062E+04  0.12959250824E+04  0.00000000000E+00 0. -1.
         -2    1    1    2    0  501 -0.48398211019E+02  0.66907422554E+02  0.55991737133E+03  0.56597389757E+03  0.00000000000E+00 0.  1.
<mgrwt>
<rscale>  0 0.74760839E+02</rscale>
<asrwt>0</asrwt>
<pdfrwt beam="2">  1        2 0.23174295E+00 0.67292000E+02</pdfrwt>
<pdfrwt beam="1">  1       -1 0.16327974E+00 0.83058655E+02</pdfrwt>
<totfact> 0.57415274E+00</totfact>
</mgrwt>
</event>
<event>
13    1  0.1595792E-008  0.1386459E+03  0.7546771E-02  0.1338112E+00
          2   -1    0    0  503    0  0.00000000000E+00  0.00000000000E+00  0.33862355127E+04  0.33862355127E+04  0.00000000000E+00 0. -1.
         -1   -1    0    0    0  501 -0.00000000000E+00 -0.00000000000E+00 -0.15712578236E+04  0.15712578236E+04  0.00000000000E+00 0.  1.
         24    2    1    2    0    0  0.27344622697E+03  0.32152123810E+03 -0.39271226994E+03  0.58204495737E+03  0.80029118720E+02 0.  0.
         25    2    1    2    0    0 -0.61516198906E+03  0.20025654147E+03  0.23382397090E+03  0.69916076171E+03  0.12500066462E+03 0.  0.
         24    2    1    2    0    0  0.43600683039E+03 -0.54214799652E+03  0.92933689784E+03  0.11622248635E+04  0.55436064468E+02 0.  0.
        -11    1    3    3    0    0  0.14165923076E+03  0.21693200125E+03 -0.20850599384E+03  0.33256815887E+03  0.00000000000E+00 0.  1.
         12    1    3    3    0    0  0.13178699621E+03  0.10458923685E+03 -0.18420627610E+03  0.24947679850E+03  0.00000000000E+00 0. -1.
        -11    1    5    5    0    0  0.37217806515E+02 -0.26659686345E+02  0.51618010820E+02  0.68995094310E+02  0.00000000000E+00 0.  1.
         12    1    5    5    0    0  0.39878902388E+03 -0.51548831018E+03  0.87771888702E+03  0.10932297691E+04  0.00000000000E+00 0. -1.
          5    1    4    4  502    0 -0.56104060993E+03  0.20000273947E+03  0.17894721561E+03  0.62194200514E+03  0.47000000000E+01 0.  1.
         -5    1    4    4    0  502 -0.54121379136E+02  0.25380200347E+00  0.54876755290E+02  0.77218756570E+02  0.47000000000E+01 0.  1.
          1    1    1    2  503    0 -0.13417846630E+03  0.35451142407E+02  0.17759677592E+04  0.17813820831E+04  0.00000000000E+00 0. -1.
         -2    1    1    2    0  501  0.39887398008E+02 -0.15080925452E+02 -0.73143866891E+03  0.73268067070E+03  0.00000000000E+00 0.  1.
<mgrwt>
<rscale>  0 0.76891473E+02</rscale>
<asrwt>0</asrwt>
<pdfrwt beam="1">  1        2 0.49797581E+00 0.13864589E+03</pdfrwt>
<pdfrwt beam="2">  1       -1 0.23106733E+00 0.42643157E+02</pdfrwt>
<totfact> 0.24314942E-01</totfact>
</mgrwt>
</event>
<event>
13    1  0.1595792E-008  0.1095586E+03  0.7546771E-02  0.1287719E+00
          2   -1    0    0  502    0  0.00000000000E+00  0.00000000000E+00  0.17164186190E+04  0.17164186190E+04  0.00000000000E+00 0. -1.
          2   -1    0    0  503    0 -0.00000000000E+00 -0.00000000000E+00 -0.31048092347E+03  0.31048092347E+03  0.00000000000E+00 0. -1.
         24    2    1    2    0    0  0.13426851186E+02 -0.11625458269E+02  0.32695037490E+02  0.85184384515E+02  0.76628860594E+02 0.  0.
         25    2    1    2    0    0  0.16335449154E+03 -0.93020926672E+02  0.35436861389E+03  0.42016398228E+03  0.12499229892E+03 0.  0.
         24    2    1    2    0    0  0.52634499113E+02  0.46757262704E+01  0.36949715668E+03  0.38233163167E+03  0.82807456615E+02 0.  0.
        -11    1    5    5    0    0  0.42483517420E+02  0.39867808880E+02  0.17581386157E+03  0.18521556456E+03  0.00000000000E+00 0.  1.
         12    1    5    5    0    0  0.10150981693E+02 -0.35192082609E+02  0.19368329511E+03  0.19711606711E+03  0.00000000000E+00 0. -1.
        -13    1    3    3    0    0  0.42101507074E+01  0.27278284050E+02  0.35660027944E+02  0.45093987877E+02  0.00000000000E+00 0.  1.
         14    1    3    3    0    0  0.92167004784E+01 -0.38903742320E+02 -0.29649904542E+01  0.40090396638E+02  0.00000000000E+00 0. -1.
          5    1    4    4  501    0  0.33170261314E+02 -0.89349281919E+02  0.15016716797E+03  0.17792084968E+03  0.47000000000E+01 0.  1.
         -5    1    4    4    0  501  0.13018423023E+03 -0.36716447525E+01  0.20420144592E+03  0.24224313260E+03  0.47000000000E+01 0.  1.
          1    1    1    2  502    0 -0.10790902219E+03 -0.61345717849E+01  0.86399905406E+03  0.87073322864E+03  0.00000000000E+00 0. -1.
          1    1    1    2  503    0 -0.12150681965E+03  0.10610523046E+03 -0.21462216658E+03  0.26848631537E+03  0.00000000000E+00 0. -1.
<mgrwt>
<rscale>  0 0.96551771E+02</rscale>
<asrwt>0</asrwt>
<pdfrwt beam="1">  1        2 0.25241450E+00 0.85089147E+02</pdfrwt>
<pdfrwt beam="2">  1        2 0.45658960E-01 0.10955856E+03</pdfrwt>
<totfact> 0.21745523E+02</totfact>
</mgrwt>
</event>
<event>
13    1  0.1595792E-008  0.7497227E+02  0.7546771E-02  0.1440347E+00
          2   -1    0    0  503    0  0.00000000000E+00  0.00000000000E+00  0.17758388855E+04  0.17758388855E+04  0.00000000000E+00 0. -1.
         -1   -1    0    0    0  501 -0.00000000000E+00 -0.00000000000E+00 -0.32892520382E+03  0.32892520382E+03  0.00000000000E+00 0.  1.
         24    2    1    2    0    0  0.69180624050E+02 -0.50369666150E+02  0.23407415239E+03  0.26140732406E+03  0.78867092265E+02 0.  0.
         25    2    1    2    0    0 -0.25660180460E+03  0.79663740028E+02  0.28509052022E+03  0.41120624277E+03  0.12499268689E+03 0.  0.
         24    2    1    2    0    0  0.12624015834E+03 -0.44033339355E+02  0.38092244043E+03  0.41176635127E+03  0.81080884691E+02 0.  0.
        -11    1    3    3    0    0  0.23601171589E+02 -0.48550003280E+02  0.56808522832E+02  0.78366615247E+02  0.00000000000E+00 0.  1.
         12    1    3    3    0    0  0.45579452461E+02 -0.18196628695E+01  0.17726562956E+03  0.18304070881E+03  0.00000000000E+00 0. -1.
        -13    1    5    5    0    0  0.11295603102E+03 -0.62940987496E+02  0.35029542430E+03  0.37339994260E+03  0.00000000000E+00 0.  1.
         14    1    5    5    0    0  0.13284127320E+02  0.18907648141E+02  0.30627016127E+02  0.38366408663E+02  0.00000000000E+00 0. -1.
          5    1    4    4  502    0 -0.92984871158E+02  0.15871580642E+01  0.29237524161E+02  0.97599324558E+02  0.47000000000E+01 0.  1.
         -5    1    4    4    0  502 -0.16361693344E+03  0.78076581963E+02  0.25585299606E+03  0.31360691822E+03  0.47000000000E+01 0.  1.
          1    1    1    2  503    0  0.73234378085E+02 -0.17702558696E+02  0.78051695160E+03  0.78414499071E+03  0.00000000000E+00 0. -1.
         -2    1    1    2    0  501 -0.12053355869E+02  0.32441824173E+02 -0.23369038294E+03  0.23623918054E+03  0.00000000000E+00 0.  1.
<mgrwt>
<rscale>  0 0.50938057E+02</rscale>
<asrwt>0</asrwt>
<pdfrwt beam="1">  1        2 0.26115277E+00 0.74972275E+02</pdfrwt>
<pdfrwt beam="2">  1       -1 0.48371354E-01 0.34608602E+02</pdfrwt>
<totfact> 0.61078121E+01</totfact>
</mgrwt>
</event>
<event>
13    1  0.1595792E-008  0.9899347E+02  0.7546771E-02  0.1398510E+00
          2   -1    0    0  502    0  0.00000000000E+00  0.00000000000E+00  0.31256021809E+04  0.31256021809E+04  0.00000000000E+00 0. -1.
          2   -1    0    0  503    0 -0.00000000000E+00 -0.00000000000E+00 -0.16013466058E+04  0.16013466058E+04  0.00000000000E+00 0. -1.
         24    2    1    2    0    0 -0.24936942693E+02  0.27663519061E+02 -0.26118956330E+02  0.92782211723E+02  0.80865428551E+02 0.  0.
         25    2    1    2    0    0 -0.28364651303E+02 -0.66704440670E+02  0.87933757752E+02  0.16914412551E+03  0.12499341420E+03 0.  0.
         24    2    1    2    0    0  0.16652396592E+02 -0.18456254282E+02  0.10491250067E+04  0.10524369297E+04  0.79638406304E+02 0.  0.
        -11    1    3    3    0    0  0.14164348345E+02 -0.15964417401E+02 -0.26714957481E+02  0.34193279167E+02  0.00000000000E+00 0.  1.
         12    1    3    3    0    0 -0.39101291037E+02  0.43627936462E+02  0.59600115096E+00  0.58588932556E+02  0.00000000000E+00 0. -1.
        -13    1    5    5    0    0  0.43125291144E+00  0.23737989601E+02  0.12672187072E+03  0.12892676466E+03  0.00000000000E+00 0.  1.
         14    1    5    5    0    0  0.16221143680E+02 -0.42194243883E+02  0.92240313595E+03  0.92351016504E+03  0.00000000000E+00 0. -1.
          5    1    4    4  501    0 -0.12860837907E+02 -0.93430025384E+02  0.23162623345E+02  0.97227403108E+02  0.47000000000E+01 0.  1.
         -5    1    4    4    0  501 -0.15503813396E+02  0.26725584714E+02  0.64771134407E+02  0.71916722398E+02  0.47000000000E+01 0.  1.
          1    1    1    2  502    0 -0.26027299137E+01 -0.36077101211E+02  0.19110627494E+04  0.19114050234E+04  0.00000000000E+00 0. -1.
          1    1    1    2  503    0  0.39251927317E+02  0.93574277102E+02 -0.14977469824E+04  0.15011804963E+04  0.00000000000E+00 0. -1.
<mgrwt>
<rscale>  0 0.59838777E+02</rscale>
<asrwt>0</asrwt>
<pdfrwt beam="1">  1        2 0.45964738E+00 0.36170864E+02</pdfrwt>
<pdfrwt beam="2">  1        2 0.23549215E+00 0.98993467E+02</pdfrwt>
<totfact> 0.65665295E+00</totfact>
</mgrwt>
</event>
<event>
13    1  0.1595792E-008  0.5807106E+02  0.7546771E-02  0.1571040E+00
          2   -1    0    0  502    0  0.00000000000E+00  0.00000000000E+00  0.15127741116E+04  0.15127741116E+04  0.00000000000E+00 0. -1.
          2   -1    0    0  503    0 -0.00000000000E+00 -0.00000000000E+00 -0.13765156709E+04  0.13765156709E+04  0.00000000000E+00 0. -1.
         24    2    1    2    0    0 -0.44088809908E+03 -0.26964544983E+03 -0.76166975122E+03  0.92465322027E+03  0.88044212205E+02 0.  0.
         25    2    1    2    0    0  0.24588405419E+03 -0.19279786016E+03 -0.69862558500E+02  0.34371268687E+03  0.12501060376E+03 0.  0.
         24    2    1    2    0    0  0.24272133667E+03  0.45960194338E+03  0.70913406081E+03  0.88283103179E+03  0.79824312469E+02 0.  0.
        -11    1    5    5    0    0  0.17715866372E+03  0.25129095500E+03  0.41657943075E+03  0.51775550052E+03  0.00000000000E+00 0.  1.
         12    1    5    5    0    0  0.65562672956E+02  0.20831098838E+03  0.29255463006E+03  0.36507553127E+03  0.00000000000E+00 0. -1.
        -13    1    3    3    0    0 -0.10591712442E+03 -0.10320227076E+03 -0.25653950832E+03  0.29611090028E+03  0.00000000000E+00 0.  1.
         14    1    3    3    0    0 -0.33497097466E+03 -0.16644317907E+03 -0.50513024289E+03  0.62854231998E+03  0.00000000000E+00 0. -1.
          5    1    4    4  501    0  0.87280907955E+02 -0.18411569342E+02 -0.60251962103E+02  0.10774660884E+03  0.47000000000E+01 0.  1.
         -5    1    4    4    0  501  0.15860314623E+03 -0.17438629082E+03 -0.96105963972E+01  0.23596607803E+03  0.47000000000E+01 0.  1.
          1    1    1    2  502    0 -0.56577150089E+02 -0.13167853453E+02  0.49632924951E+03  0.49971701011E+03  0.00000000000E+00 0. -1.
          1    1    1    2  503    0  0.88598583136E+01  0.16009220062E+02 -0.23767255994E+03  0.23837583344E+03  0.00000000000E+00 0. -1.
<mgrwt>
<rscale>  0 0.32596706E+02</rscale>
<asrwt>0</asrwt>
<pdfrwt beam="1">  1        2 0.22246678E+00 0.58071061E+02</pdfrwt>
<pdfrwt beam="2">  1        2 0.20242877E+00 0.18297328E+02</pdfrwt>
<totfact> 0.53969618E+01</totfact>
</mgrwt>
</event>
<event>
13    1  0.1595792E-008  0.8511339E+02  0.7546771E-02  0.1315808E+00
          2   -1    0    0  503    0  0.00000000000E+00  0.00000000000E+00  0.26855488744E+04  0.26855488744E+04  0.00000000000E+00 0. -1.
         -1   -1    0    0    0  501 -0.00000000000E+00 -0.00000000000E+00 -0.63098368851E+03  0.63098368851E+03  0.00000000000E+00 0.  1.
         24    2    1    2    0    0 -0.50427384977E+02 -0.25251451949E+02 -0.17106019619E+03  0.19740442555E+03  0.80785886927E+02 0.  0.
         25    2    1    2    0    0  0.17541569677E+02  0.70121598544E+02  0.10320606032E+03  0.17748602255E+03  0.12500020826E+03 0.  0.
         24    2    1    2    0    0 -0.63768694437E+02  0.29513031835E+02  0.19144375401E+03  0.21874671521E+03  0.79132477705E+02 0.  0.
        -11    1    3    3    0    0  0.10346907910E+02 -0.35417566919E+02 -0.62933867800E+02  0.72952959268E+02  0.00000000000E+00 0.  1.
         12    1    3    3    0    0 -0.60774292887E+02  0.10166114970E+02 -0.10812632839E+03  0.12445146629E+03  0.00000000000E+00 0. -1.
        -13    1    5    5    0    0  0.12121176059E+02 -0.84190224595E+01  0.83629940700E+01  0.16962974917E+02  0.00000000000E+00 0.  1.
         14    1    5    5    0    0 -0.75889870495E+02  0.37932054295E+02  0.18308075994E+03  0.20178374029E+03  0.00000000000E+00 0. -1.
          5    1    4    4  502    0  0.54405063392E+02  0.67341442468E+02  0.10952587894E+03  0.13968818473E+03  0.47000000000E+01 0. -1.
         -5    1    4    4    0  502 -0.36863493715E+02  0.27801560761E+01 -0.63198186118E+01  0.37797837821E+02  0.47000000000E+01 0. -1.
          1    1    1    2  503    0  0.12098512944E+02 -0.83730756477E+02  0.23215867717E+04  0.23231277090E+04  0.00000000000E+00 0. -1.
         -2    1    1    2    0  501  0.84555996792E+02  0.93475780472E+01 -0.39061120396E+03  0.39976769063E+03  0.00000000000E+00 0.  1.
<mgrwt>
<rscale>  0 0.84856468E+02</rscale>
<asrwt>0</asrwt>
<pdfrwt beam="1">  1        2 0.39493365E+00 0.84600317E+02</pdfrwt>
<pdfrwt beam="2">  1       -1 0.92791720E-01 0.85113394E+02</pdfrwt>
<totfact> 0.61908174E+00</totfact>
</mgrwt>
</event>
<event>
13    1  0.1595792E-008  0.9735809E+02  0.7546771E-02  0.1429761E+00
          2   -1    0    0  502    0  0.00000000000E+00  0.00000000000E+00  0.30704976234E+03  0.30704976234E+03  0.00000000000E+00 0. -1.
          2   -1    0    0  503    0 -0.00000000000E+00 -0.00000000000E+00 -0.12781947932E+04  0.12781947932E+04  0.00000000000E+00 0. -1.
         24    2    1    2    0    0 -0.11260947128E+03 -0.31261476249E+01 -0.32464404616E+03  0.35313868391E+03  0.81378790482E+02 0.  0.
         25    2    1    2    0    0  0.32975733136E+02 -0.22636789317E+01  0.25221163526E+02  0.13172802439E+03  0.12499456829E+03 0.  0.
         24    2    1    2    0    0 -0.26936051885E+01  0.26881965209E+01  0.40515460573E+02  0.91220646885E+02  0.81640810648E+02 0.  0.
        -11    1    3    3    0    0 -0.10922437646E+03  0.21194514010E+01 -0.19636622774E+03  0.22470903828E+03  0.00000000000E+00 0.  1.
         12    1    3    3    0    0 -0.33850948173E+01 -0.52455990259E+01 -0.12827781842E+03  0.12842964562E+03  0.00000000000E+00 0. -1.
        -11    1    5    5    0    0 -0.35170416682E+02 -0.91751384828E+01  0.43299415985E+02  0.56533006292E+02  0.00000000000E+00 0.  1.
         12    1    5    5    0    0  0.32476811493E+02  0.11863335004E+02 -0.27839554123E+01  0.34687640593E+02  0.00000000000E+00 0. -1.
          5    1    4    4  501    0  0.93202267802E+01 -0.45434109893E+02  0.56474026588E+02  0.73229301840E+02  0.47000000000E+01 0. -1.
         -5    1    4    4    0  501  0.23655506356E+02  0.43170430961E+02 -0.31252863062E+02  0.58498722549E+02  0.47000000000E+01 0. -1.
          1    1    1    2  502    0 -0.11129783360E+02 -0.26628699391E+02  0.14423877119E+03  0.14709786818E+03  0.00000000000E+00 0. -1.
          1    1    1    2  503    0  0.93457126695E+02  0.29330329427E+02 -0.85647637993E+03  0.86205933214E+03  0.00000000000E+00 0. -1.
<mgrwt>
<rscale>  0 0.53008074E+02</rscale>
<asrwt>0</asrwt>
<pdfrwt beam="1">  1        2 0.45154377E-01 0.28861041E+02</pdfrwt>
<pdfrwt beam="2">  1        2 0.18796982E+00 0.97358090E+02</pdfrwt>
<totfact> 0.35318232E+02</totfact>
</mgrwt>
</event>
<event>
13    1  0.1595792E-008  0.7278596E+02  0.7546771E-02  0.1632229E+00
          2   -1    0    0  503    0  0.00000000000E+00  0.00000000000E+00  0.18287699742E+04  0.18287699742E+04  0.00000000000E+00 0. -1.
         -1   -1    0    0    0  501 -0.00000000000E+00 -0.00000000000E+00 -0.27637615671E+04  0.27637615671E+04  0.00000000000E+00 0.  1.
         24    2    1    2    0    0 -0.15620990270E+03 -0.18334092089E+03 -0.41144220220E+03  0.48333893049E+03  0.79475839097E+02 0.  0.
         25    2    1    2    0    0 -0.23071608051E+03  0.70639671256E+03 -0.36204885008E+02  0.75442791293E+03  0.12499782709E+03 0.  0.
         24    2    1    2    0    0  0.46706796023E+03 -0.53756606053E+03  0.23794269829E+03  0.75686952392E+03  0.95420121898E+02 0.  0.
        -13    1    5    5    0    0  0.63106568406E+02 -0.12808089213E+03  0.36097277969E+02  0.14727582077E+03  0.00000000000E+00 0.  1.
         14    1    5    5    0    0  0.40396139182E+03 -0.40948516840E+03  0.20184542032E+03  0.60959370315E+03  0.00000000000E+00 0. -1.
        -13    1    3    3    0    0 -0.98442772912E+02 -0.12247391666E+03 -0.33414812432E+03  0.36925033350E+03  0.00000000000E+00 0.  1.
         14    1    3    3    0    0 -0.57767129788E+02 -0.60867004234E+02 -0.77294077875E+02  0.11408859699E+03  0.00000000000E+00 0. -1.
          5    1    4    4  502    0 -0.95514331866E+02  0.21668660333E+03  0.41525998373E+02  0.24046324084E+03  0.47000000000E+01 0. -1.
         -5    1    4    4    0  502 -0.13520174864E+03  0.48971010924E+03 -0.77730883381E+02  0.51396467209E+03  0.47000000000E+01 0. -1.
          1    1    1    2  503    0 -0.95673617982E+01 -0.32638387269E+01  0.93547973275E+03  0.93553434862E+03  0.00000000000E+00 0. -1.
         -2    1    1    2    0  501 -0.70574615220E+02  0.17774107581E+02 -0.16607669367E+04  0.16623608253E+04  0.00000000000E+00 0.  1.
<mgrwt>
<rscale>  0 0.27125190E+02</rscale>
<asrwt>0</asrwt>
<pdfrwt beam="1">  1        2 0.26893676E+00 0.10108761E+02</pdfrwt>
<pdfrwt beam="2">  1       -1 0.40643552E+00 0.72785964E+02</pdfrwt>
<totfact> 0.16163197E-01</totfact>
</mgrwt>
</event>
<event>
13    1  0.1595792E-008  0.1465184E+03  0.7546771E-02  0.1265044E+00
          2   -1    0    0  502    0  0.00000000000E+00  0.00000000000E+00  0.26155829574E+04  0.26155829574E+04  0.00000000000E+00 0. -1.
          2   -1    0    0  503    0 -0.00000000000E+00 -0.00000000000E+00 -0.32219677332E+04  0.32219677332E+04  0.00000000000E+00 0. -1.
         24    2    1    2    0    0 -0.12623170777E+03 -0.18171940540E+02 -0.11561998541E+03  0.18946133157E+03  0.79138812626E+02 0.  0.
         25    2    1    2    0    0  0.26917554010E+03  0.14289404799E+03 -0.28842312793E+03  0.43781939751E+03  0.12499497498E+03 0.  0.
         24    2    1    2    0    0  0.70436401243E+02 -0.10011515034E+03  0.70148681146E+03  0.71729736530E+03  0.86298514860E+02 0.  0.
        -13    1    5    5    0    0  0.18365159653E+01  0.14770735858E+02  0.10037646485E+03  0.10147404656E+03  0.00000000000E+00 0.  1.
         14    1    5    5    0    0  0.68599885277E+02 -0.11488588620E+03  0.60111034661E+03  0.61582331874E+03  0.00000000000E+00 0. -1.
        -13    1    3    3    0    0 -0.86935324854E+01 -0.29808902810E+02 -0.33053957994E+02  0.45350990428E+02  0.00000000000E+00 0.  1.
         14    1    3    3    0    0 -0.11753817529E+03  0.11636962269E+02 -0.82566027420E+02  0.14411034114E+03  0.00000000000E+00 0. -1.
          5    1    4    4  501    0  0.27227280027E+03  0.10766140971E+03 -0.26652480444E+03  0.39595582871E+03  0.47000000000E+01 0. -1.
         -5    1    4    4    0  501 -0.30972601695E+01  0.35232638283E+02 -0.21898323491E+02  0.41863568800E+02  0.47000000000E+01 0. -1.
          1    1    1    2  502    0 -0.14532465280E+03  0.15603158776E+02  0.17910155427E+04  0.17969695010E+04  0.00000000000E+00 0. -1.
          1    1    1    2  503    0 -0.68055580779E+02 -0.40210115885E+02 -0.26948440167E+04  0.26960030953E+04  0.00000000000E+00 0. -1.
<mgrwt>
<rscale>  0 0.10761892E+03</rscale>
<asrwt>0</asrwt>
<pdfrwt beam="1">  1        2 0.38464456E+00 0.14651844E+03</pdfrwt>
<pdfrwt beam="2">  1        2 0.47381878E+00 0.79046920E+02</pdfrwt>
<totfact> 0.15447070E+00</totfact>
</mgrwt>
</event>
<event>
13    1  0.1595792E-008  0.4991231E+02  0.7546771E-02  0.1472663E+00
         -3   -1    0    0    0  501 -0.00000000000E+00  0.00000000000E+00  0.11796220051E+04  0.11796220051E+04  0.00000000000E+00 0.  1.
          2   -1    0    0  503    0  0.00000000000E+00 -0.00000000000E+00 -0.78201935914E+03  0.78201935914E+03  0.00000000000E+00 0. -1.
         24    2    1    2    0    0 -0.41815716517E+02 -0.29330420223E+02 -0.61161423341E+01  0.95668988983E+02  0.80661766394E+02 0.  0.
         25    2    1    2    0    0  0.58880286907E+02  0.75882405865E+02 -0.15329057940E+03  0.21988392823E+03  0.12500364977E+03 0.  0.
         24    2    1    2    0    0  0.49658676631E+01 -0.23478713290E+02 -0.13063016084E+03  0.15517770769E+03  0.80249437534E+02 0.  0.
        -13    1    3    3    0    0 -0.58658090151E+02 -0.11957502947E+02  0.16972528607E+02  0.62223951532E+02  0.00000000000E+00 0.  1.
         14    1    3    3    0    0  0.16842373634E+02 -0.17372917276E+02 -0.23088670941E+02  0.33445037452E+02  0.00000000000E+00 0. -1.
        -13    1    5    5    0    0  0.25593891066E+02 -0.46357322870E+02 -0.83177702638E+02  0.98603138184E+02  0.00000000000E+00 0.  1.
         14    1    5    5    0    0 -0.20628023403E+02  0.22878609580E+02 -0.47452458198E+02  0.56574569507E+02  0.00000000000E+00 0. -1.
          5    1    4    4  502    0 -0.32374482019E+02 -0.75840958884E+01 -0.27308057158E+02  0.43283317596E+02  0.47000000000E+01 0. -1.
         -5    1    4    4    0  502  0.91254768926E+02  0.83466501754E+02 -0.12598252224E+03  0.17660061064E+03  0.47000000000E+01 0. -1.
          1    1    1    2  503    0 -0.31850569138E+02  0.25912053505E+02 -0.40001130217E+03  0.40211308750E+03  0.00000000000E+00 0. -1.
         -4    1    1    2    0  501  0.98201310844E+01 -0.48985325858E+02  0.10876508307E+04  0.10887976519E+04  0.00000000000E+00 0.  1.
<mgrwt>
<rscale>  0 0.45270088E+02</rscale>
<asrwt>0</asrwt>
<pdfrwt beam="2">  1        2 0.11500285E+00 0.41059631E+02</pdfrwt>
<pdfrwt beam="1">  1       -3 0.17347382E+00 0.49912306E+02</pdfrwt>
<totfact> 0.61607999E+00</totfact>
</mgrwt>
</event>
<event>
13    1  0.1745491E-008  0.1025885E+03  0.7546771E-02  0.1475257E+00
          2   -1    0    0  503    0  0.00000000000E+00  0.00000000000E+00  0.41627329936E+04  0.41627329936E+04  0.00000000000E+00 0. -1.
          2   -1    0    0  502    0 -0.00000000000E+00 -0.00000000000E+00 -0.16933689956E+04  0.16933689956E+04  0.00000000000E+00 0. -1.
         24    2    1    2    0    0 -0.11895528316E+03 -0.41691935490E+03 -0.68178222548E+03  0.81212152446E+03  0.82111263695E+02 0.  0.
         25    2    1    2    0    0  0.48173780938E+02 -0.52832415098E+03 -0.72745235469E+02  0.54987611005E+03  0.12499898177E+03 0.  0.
         24    2    1    2    0    0  0.17755734755E+03  0.94508493792E+03  0.10555362603E+04  0.14316105032E+04  0.10314884671E+03 0.  0.
        -13    1    5    5    0    0  0.12255392849E+03  0.70615209334E+03  0.84868990621E+03  0.11108306807E+04  0.00000000000E+00 0.  1.
         14    1    5    5    0    0  0.55003419054E+02  0.23893284458E+03  0.20684635408E+03  0.32077982250E+03  0.00000000000E+00 0. -1.
        -13    1    3    3    0    0 -0.10940695236E+03 -0.33966414430E+03 -0.49913077387E+03  0.61357407179E+03  0.00000000000E+00 0.  1.
         14    1    3    3    0    0 -0.95483308016E+01 -0.77255210597E+02 -0.18265145161E+03  0.19854745267E+03  0.00000000000E+00 0. -1.
          5    1    4    4  501    0  0.69245069168E+02 -0.18798966086E+03  0.35640943840E+01  0.20042401294E+03  0.47000000000E+01 0. -1.
         -5    1    4    4    0  501 -0.21071288230E+02 -0.34033449012E+03 -0.76309329853E+02  0.34945209711E+03  0.47000000000E+01 0. -1.
          1    1    1    2  502    0 -0.58803982457E+01  0.18708578461E+02 -0.44584774204E+03  0.44627883557E+03  0.00000000000E+00 0. -1.
          1    1    1    2  503    0 -0.10089544708E+03 -0.18550010505E+02  0.26142029407E+04  0.26162150159E+04  0.00000000000E+00 0. -1.
<mgrwt>
<rscale>  0 0.44853749E+02</rscale>
<asrwt>0</asrwt>
<pdfrwt beam="1">  1        2 0.61216662E+00 0.10258846E+03</pdfrwt>
<pdfrwt beam="2">  1        2 0.24902485E+00 0.19610966E+02</pdfrwt>
<totfact> 0.13323901E+00</totfact>
</mgrwt>
</event>
<event>
13    1  0.1595792E-008  0.1138351E+03  0.7546771E-02  0.1441113E+00
          2   -1    0    0  503    0  0.00000000000E+00  0.00000000000E+00  0.37605428156E+04  0.37605428156E+04  0.00000000000E+00 0. -1.
          2   -1    0    0  502    0 -0.00000000000E+00 -0.00000000000E+00 -0.88237427037E+03  0.88237427037E+03  0.00000000000E+00 0. -1.
         24    2    1    2    0    0 -0.37223944761E+03 -0.44144349340E+03 -0.19626806615E+02  0.58387147297E+03  0.84179101822E+02 0.  0.
         25    2    1    2    0    0  0.64435029434E+02  0.65356981703E+03  0.25554476947E+03  0.71570345570E+03  0.12499171389E+03 0.  0.
         24    2    1    2    0    0  0.36179994777E+03 -0.11681263102E+03  0.91956850947E+03  0.99864596989E+03  0.84517078608E+02 0.  0.
        -13    1    3    3    0    0 -0.30415445710E+03 -0.33229707007E+03  0.14736411192E+02  0.45071991122E+03  0.00000000000E+00 0.  1.
         14    1    3    3    0    0 -0.68084990508E+02 -0.10914642334E+03 -0.34363217807E+02  0.13315156175E+03  0.00000000000E+00 0. -1.
        -13    1    5    5    0    0  0.33695613998E+03 -0.13021069021E+03  0.85418018259E+03  0.92742549482E+03  0.00000000000E+00 0.  1.
         14    1    5    5    0    0  0.24843807793E+02  0.13398059186E+02  0.65388326884E+02  0.71220475064E+02  0.00000000000E+00 0. -1.
          5    1    4    4  501    0  0.11213448791E+02  0.26244478399E+03  0.16645380742E+03  0.31101762985E+03  0.47000000000E+01 0. -1.
         -5    1    4    4    0  501  0.53221580644E+02  0.39112503305E+03  0.89090962053E+02  0.40468582585E+03  0.47000000000E+01 0. -1.
          1    1    1    2  502    0  0.20647776783E+02 -0.93433024486E+01 -0.30899825542E+03  0.30982825862E+03  0.00000000000E+00 0. -1.
          1    1    1    2  503    0 -0.74643306377E+02 -0.85970390160E+02  0.20316803283E+04  0.20348679288E+04  0.00000000000E+00 0. -1.
<mgrwt>
<rscale>  0 0.50792579E+02</rscale>
<asrwt>0</asrwt>
<pdfrwt beam="1">  1        2 0.55302100E+00 0.11383510E+03</pdfrwt>
<pdfrwt beam="2">  1        2 0.12976092E+00 0.22663362E+02</pdfrwt>
<totfact> 0.58845815E+00</totfact>
</mgrwt>
</event>
<event>
13    1  0.1595792E-008  0.1275293E+03  0.7546771E-02  0.1404908E+00
          2   -1    0    0  502    0  0.00000000000E+00  0.00000000000E+00  0.17053361474E+04  0.17053361474E+04  0.00000000000E+00 0. -1.
          2   -1    0    0  503    0 -0.00000000000E+00 -0.00000000000E+00 -0.33036875812E+04  0.33036875812E+04  0.00000000000E+00 0. -1.
         24    2    1    2    0    0 -0.10186444017E+03 -0.16656958479E+02 -0.11747767955E+03  0.17710109541E+03  0.83126255584E+02 0.  0.
         25    2    1    2    0    0  0.11048099889E+03  0.17905670913E+03  0.55388808136E+03  0.60553021802E+03  0.12492990860E+03 0.  0.
         24    2    1    2    0    0 -0.56984593868E+02 -0.22668031439E+02  0.98425343911E+02  0.14473542036E+03  0.86600866011E+02 0.  0.
        -11    1    5    5    0    0 -0.79219780238E+02 -0.24176073653E+02  0.85179511248E+02  0.11880995436E+03  0.00000000000E+00 0.  1.
         12    1    5    5    0    0  0.22235186370E+02  0.15080422137E+01  0.13245832664E+02  0.25925465997E+02  0.00000000000E+00 0. -1.
        -13    1    3    3    0    0 -0.73549741475E+01 -0.18580970950E+02 -0.67045488240E+02  0.69960314604E+02  0.00000000000E+00 0.  1.
         14    1    3    3    0    0 -0.94509466026E+02  0.19240124707E+01 -0.50432191306E+02  0.10714078081E+03  0.00000000000E+00 0. -1.
          5    1    4    4  501    0  0.95435753132E+02  0.58534586713E+02  0.17664045609E+03  0.20918465896E+03  0.47000000000E+01 0.  1.
         -5    1    4    4    0  501  0.15045245754E+02  0.12052212242E+03  0.37724762527E+03  0.39634555906E+03  0.47000000000E+01 0.  1.
          1    1    1    2  502    0 -0.81189030527E+01 -0.25428931950E+02  0.97274390837E+03  0.97311009574E+03  0.00000000000E+00 0. -1.
          1    1    1    2  503    0  0.56486938208E+02 -0.11430278726E+03 -0.31059310878E+04  0.31085468991E+04  0.00000000000E+00 0. -1.
<mgrwt>
<rscale>  0 0.58345641E+02</rscale>
<asrwt>0</asrwt>
<pdfrwt beam="1">  1        2 0.25078473E+00 0.26693579E+02</pdfrwt>
<pdfrwt beam="2">  1        2 0.48583641E+00 0.12752931E+03</pdfrwt>
<totfact> 0.42508064E+00</totfact>
</mgrwt>
</event>
<event>
13    1  0.1595792E-008  0.6636617E+02  0.7546771E-02  0.1402813E+00
          2   -1    0    0  502    0  0.00000000000E+00  0.00000000000E+00  0.11893935101E+04  0.11893935101E+04  0.00000000000E+00 0. -1.
          2   -1    0    0  503    0 -0.00000000000E+00 -0.00000000000E+00 -0.14315138156E+04  0.14315138156E+04  0.00000000000E+00 0. -1.
         24    2    1    2    0    0 -0.53695543198E+02 -0.38456809376E+02 -0.26346562925E+03  0.28300836338E+03  0.79482440820E+02 0.  0.
         25    2    1    2    0    0  0.12070675674E+03 -0.28665573239E+03 -0.41541138246E+02  0.33776761484E+03  0.12497865992E+03 0.  0.
         24    2    1    2    0    0 -0.46920819809E+02  0.22865135589E+03  0.46433170458E+03  0.52604366756E+03  0.81455524211E+02 0.  0.
        -13    1    3    3    0    0  0.16940677721E+02  0.51225736536E+01 -0.75284884582E+02  0.77337191370E+02  0.00000000000E+00 0.  1.
         14    1    3    3    0    0 -0.70636220920E+02 -0.43579383030E+02 -0.18818074467E+03  0.20567117201E+03  0.00000000000E+00 0. -1.
        -13    1    5    5    0    0 -0.51217054252E+02  0.70957994543E+02  0.13505349002E+03  0.16092752655E+03  0.00000000000E+00 0.  1.
         14    1    5    5    0    0  0.42962344431E+01  0.15769336135E+03  0.32927821456E+03  0.36511614101E+03  0.00000000000E+00 0. -1.
          5    1    4    4  501    0  0.50281423741E+02 -0.13130227567E+03 -0.81409311544E+02  0.16253638108E+03  0.47000000000E+01 0. -1.
         -5    1    4    4    0  501  0.70425333000E+02 -0.15535345672E+03  0.39868173298E+02  0.17523123376E+03  0.47000000000E+01 0. -1.
          1    1    1    2  502    0  0.23564045742E+02  0.46520209647E+02  0.53387628128E+03  0.53641707455E+03  0.00000000000E+00 0. -1.
          1    1    1    2  503    0 -0.43654439475E+02  0.49940976226E+02 -0.93532152390E+03  0.93767060541E+03  0.00000000000E+00 0. -1.
<mgrwt>
<rscale>  0 0.58828992E+02</rscale>
<asrwt>0</asrwt>
<pdfrwt beam="1">  1        2 0.17491081E+00 0.52147811E+02</pdfrwt>
<pdfrwt beam="2">  1        2 0.21051674E+00 0.66366168E+02</pdfrwt>
<totfact> 0.66815550E+01</totfact>
</mgrwt>
</event>
<event>
13    1  0.1595792E-008  0.1670046E+03  0.7546771E-02  0.1270860E+00
          2   -1    0    0  503    0  0.00000000000E+00  0.00000000000E+00  0.37766219341E+03  0.37766219341E+03  0.00000000000E+00 0. -1.
         -1   -1    0    0    0  501 -0.00000000000E+00 -0.00000000000E+00 -0.13209763822E+04  0.13209763822E+04  0.00000000000E+00 0.  1.
         24    2    1    2    0    0 -0.63321133162E+02 -0.32409023414E+01 -0.10417302613E+03  0.14547349121E+03  0.79312344057E+02 0.  0.
         25    2    1    2    0    0 -0.41682481444E+02 -0.59269114065E+02 -0.11865628803E+03  0.18694958306E+03  0.12498229786E+03 0.  0.
         24    2    1    2    0    0 -0.23417538253E+02  0.19240907559E+02 -0.93262894703E+01  0.84986248022E+02  0.78848519682E+02 0.  0.
        -11    1    5    5    0    0 -0.21472761551E+02  0.46972230187E+02 -0.19752628129E+02  0.55295896913E+02  0.00000000000E+00 0.  1.
         12    1    5    5    0    0 -0.19447767025E+01 -0.27731322629E+02  0.10426338659E+02  0.29690351109E+02  0.00000000000E+00 0. -1.
        -13    1    3    3    0    0  0.85233533679E+01 -0.23316711140E+02 -0.39970954294E+02  0.47053095096E+02  0.00000000000E+00 0.  1.
         14    1    3    3    0    0 -0.71844486530E+02  0.20075808799E+02 -0.64202071834E+02  0.98420396115E+02  0.00000000000E+00 0. -1.
          5    1    4    4  502    0 -0.83243348084E+02 -0.37041634991E+02 -0.10173764758E+03  0.13665349120E+03  0.47000000000E+01 0.  1.
         -5    1    4    4    0  502  0.41560866640E+02 -0.22227479074E+02 -0.16918640452E+02  0.50296091862E+02  0.47000000000E+01 0.  1.
          1    1    1    2  503    0  0.19054752141E+03  0.22375375252E+02  0.25150958639E+03  0.31633224208E+03  0.00000000000E+00 0. -1.
         -2    1    1    2    0  501 -0.62126368555E+02  0.20893733596E+02 -0.96266817158E+03  0.96489701126E+03  0.00000000000E+00 0.  1.
<mgrwt>
<rscale>  0 0.10462518E+03</rscale>
<asrwt>0</asrwt>
<pdfrwt beam="1">  1        2 0.55538558E-01 0.16700463E+03</pdfrwt>
<pdfrwt beam="2">  1       -1 0.19426123E+00 0.65545662E+02</pdfrwt>
<totfact> 0.21156890E+01</totfact>
</mgrwt>
</event>
<event>
13    1  0.1595792E-008  0.1645794E+03  0.7546771E-02  0.1459944E+00
          2   -1    0    0  503    0  0.00000000000E+00  0.00000000000E+00  0.84950263403E+03  0.84950263403E+03  0.00000000000E+00 0. -1.
          2   -1    0    0  502    0 -0.00000000000E+00 -0.00000000000E+00 -0.23110007066E+04  0.23110007066E+04  0.00000000000E+00 0. -1.
         24    2    1    2    0    0  0.26826868981E+02  0.70993673141E+01 -0.55947173475E+03  0.56620972404E+03  0.82551485151E+02 0.  0.
         25    2    1    2    0    0 -0.28710887582E+02 -0.19721656136E+03 -0.41473610583E+03  0.47681194913E+03  0.12499964086E+03 0.  0.
         24    2    1    2    0    0  0.14907414614E+03  0.12720393442E+03 -0.83068767967E+00  0.21174607098E+03  0.80198295223E+02 0.  0.
        -13    1    5    5    0    0  0.13891088373E+03  0.95810325294E+02 -0.25342648849E+02  0.17064027046E+03  0.00000000000E+00 0.  1.
         14    1    5    5    0    0  0.10163262412E+02  0.31393609121E+02  0.24511961169E+02  0.41105800525E+02  0.00000000000E+00 0. -1.
        -13    1    3    3    0    0 -0.88816209631E+01 -0.13551631149E+00 -0.43445541116E+01  0.98882104565E+01  0.00000000000E+00 0.  1.
         14    1    3    3    0    0  0.35708489944E+02  0.72348836256E+01 -0.55512718064E+03  0.55632151359E+03  0.00000000000E+00 0. -1.
          5    1    4    4  501    0  0.27376031632E+02 -0.18289916886E+02 -0.17643236467E+02  0.37647602323E+02  0.47000000000E+01 0. -1.
         -5    1    4    4    0  501 -0.56086919214E+02 -0.17892664447E+03 -0.39709286936E+03  0.43916434681E+03  0.47000000000E+01 0. -1.
          1    1    1    2  502    0  0.91953519282E+01  0.10083097261E+02 -0.11864587373E+04  0.11865372133E+04  0.00000000000E+00 0. -1.
          1    1    1    2  503    0 -0.15638547947E+03  0.52830162366E+02  0.69999919293E+03  0.71919838317E+03  0.00000000000E+00 0. -1.
<mgrwt>
<rscale>  0 0.47391042E+02</rscale>
<asrwt>0</asrwt>
<pdfrwt beam="1">  1        2 0.12492686E+00 0.16457939E+03</pdfrwt>
<pdfrwt beam="2">  1        2 0.33985304E+00 0.13646368E+02</pdfrwt>
<totfact> 0.47060602E+01</totfact>
</mgrwt>
</event>
<event>
13    1  0.1595792E-008  0.6054109E+02  0.7546771E-02  0.1401306E+00
          2   -1    0    0  503    0  0.00000000000E+00  0.00000000000E+00  0.25457443410E+04  0.25457443410E+04  0.00000000000E+00 0. -1.
         -1   -1    0    0    0  501 -0.00000000000E+00 -0.00000000000E+00 -0.83823329490E+02  0.83823329490E+02  0.00000000000E+00 0.  1.
         24    2    1    2    0    0  0.57568567156E+02 -0.38067490614E+01  0.21884214267E+03  0.23893887066E+03  0.76624207921E+02 0.  0.
         25    2    1    2    0    0  0.70770674426E+02 -0.68166493390E+02  0.38960013634E+03  0.42079500217E+03  0.12500003372E+03 0.  0.
         24    2    1    2    0    0 -0.41183198162E+02  0.25449009619E+02  0.83361550366E+03  0.83901986477E+03  0.81827975899E+02 0.  0.
        -11    1    5    5    0    0 -0.64674786661E+02  0.22786638625E+02  0.51780145614E+03  0.52232212944E+03  0.00000000000E+00 0.  1.
         12    1    5    5    0    0  0.23491588499E+02  0.26623709943E+01  0.31581404752E+03  0.31669773533E+03  0.00000000000E+00 0. -1.
        -11    1    3    3    0    0  0.68182033409E+02  0.18982540700E+02  0.16204315370E+03  0.17682508360E+03  0.00000000000E+00 0.  1.
         12    1    3    3    0    0 -0.10613466253E+02 -0.22789289762E+02  0.56798988974E+02  0.62113787055E+02  0.00000000000E+00 0. -1.
          5    1    4    4  502    0 -0.35680035864E+02 -0.94976144895E+01  0.84019303606E+02  0.91894521158E+02  0.47000000000E+01 0.  1.
         -5    1    4    4    0  502  0.10645071029E+03 -0.58668878900E+02  0.30558083274E+03  0.32890048101E+03  0.47000000000E+01 0.  1.
          1    1    1    2  503    0 -0.29568688376E+02  0.52020644039E+02  0.10591799608E+04  0.10608688157E+04  0.00000000000E+00 0. -1.
         -2    1    1    2    0  501 -0.57587355045E+02 -0.54964112072E+01 -0.39316732016E+02  0.69945117153E+02  0.00000000000E+00 0.  1.
<mgrwt>
<rscale>  0 0.59179771E+02</rscale>
<asrwt>0</asrwt>
<pdfrwt beam="1">  1        2 0.37437412E+00 0.60541090E+02</pdfrwt>
<pdfrwt beam="2">  1       -1 0.12326962E-01 0.57849062E+02</pdfrwt>
<totfact> 0.24403144E+02</totfact>
</mgrwt>
</event>
<event>
13    1  0.1595792E-008  0.2492941E+03  0.7546771E-02  0.1426994E+00
          2   -1    0    0  503    0  0.00000000000E+00  0.00000000000E+00  0.14046366044E+04  0.14046366044E+04  0.00000000000E+00 0. -1.
          2   -1    0    0  502    0 -0.00000000000E+00 -0.00000000000E+00 -0.12842826867E+04  0.12842826867E+04  0.00000000000E+00 0. -1.
         24    2    1    2    0    0  0.74970181229E+02  0.26264713878E+03 -0.10969878351E+03  0.30477880124E+03  0.79071151478E+02 0.  0.
         25    2    1    2    0    0  0.13565290659E+03 -0.34462157710E+03  0.31283864850E+03  0.50066233775E+03  0.12501605488E+03 0.  0.
         24    2    1    2    0    0  0.37433995809E+02  0.74333496508E+02  0.16630161401E+03  0.20284704818E+03  0.81018055921E+02 0.  0.
        -11    1    3    3    0    0  0.85257588461E+02  0.17994005817E+03 -0.61003800462E+02  0.20825163768E+03  0.00000000000E+00 0.  1.
         12    1    3    3    0    0 -0.10287407231E+02  0.82707080613E+02 -0.48694983048E+02  0.96527163561E+02  0.00000000000E+00 0. -1.
        -11    1    5    5    0    0  0.43192990171E+02  0.34422532465E+01  0.80304041887E+02  0.91248137793E+02  0.00000000000E+00 0.  1.
         12    1    5    5    0    0 -0.57589943620E+01  0.70891243261E+02  0.85997572126E+02  0.11159891038E+03  0.00000000000E+00 0. -1.
          5    1    4    4  501    0  0.15036915925E+03 -0.33564267855E+03  0.27645044003E+03  0.46012370892E+03  0.47000000000E+01 0.  1.
         -5    1    4    4    0  501 -0.14716252663E+02 -0.89788985467E+01  0.36388208473E+02  0.40538628830E+02  0.47000000000E+01 0.  1.
          1    1    1    2  502    0 -0.24962416706E+03  0.19044468009E+02 -0.94857179163E+03  0.98105217008E+03  0.00000000000E+00 0. -1.
          1    1    1    2  503    0  0.15670834335E+01 -0.11403526203E+02  0.69948423034E+03  0.69957893383E+03  0.00000000000E+00 0. -1.
<mgrwt>
<rscale>  0 0.53568171E+02</rscale>
<asrwt>0</asrwt>
<pdfrwt beam="1">  1        2 0.20656421E+00 0.11510698E+02</pdfrwt>
<pdfrwt beam="2">  1        2 0.18886510E+00 0.24929410E+03</pdfrwt>
<totfact> 0.64336456E+01</totfact>
</mgrwt>
</event>
<event>
13    1  0.1595792E-008  0.9236755E+02  0.7546771E-02  0.1460462E+00
          2   -1    0    0  503    0  0.00000000000E+00  0.00000000000E+00  0.17633859319E+04  0.17633859319E+04  0.00000000000E+00 0. -1.
          2   -1    0    0  502    0 -0.00000000000E+00 -0.00000000000E+00 -0.18121643836E+04  0.18121643836E+04  0.00000000000E+00 0. -1.
         24    2    1    2    0    0  0.48496104487E+02  0.11282203863E+02 -0.13294731893E+03  0.16244834376E+03  0.78964007646E+02 0.  0.
         25    2    1    2    0    0 -0.91910787790E+02  0.97501444326E+02 -0.27493604541E+03  0.33041056259E+03  0.12500874467E+03 0.  0.
         24    2    1    2    0    0 -0.52725303863E+02 -0.76768898127E+02  0.89665170374E+03  0.90518741658E+03  0.81893589077E+02 0.  0.
        -11    1    3    3    0    0  0.36217972244E+02  0.44767762276E+02 -0.78375207455E+02  0.97255165397E+02  0.00000000000E+00 0.  1.
         12    1    3    3    0    0  0.12278132243E+02 -0.33485558413E+02 -0.54572111479E+02  0.65193178362E+02  0.00000000000E+00 0. -1.
        -13    1    5    5    0    0  0.14552988229E+02 -0.47628002668E+02  0.41725011209E+03  0.42021169920E+03  0.00000000000E+00 0.  1.
         14    1    5    5    0    0 -0.67278292092E+02 -0.29140895459E+02  0.47940159165E+03  0.48497571738E+03  0.00000000000E+00 0. -1.
          5    1    4    4  501    0 -0.57794977832E+02  0.44473117484E+01 -0.28529689081E+02  0.64777088569E+02  0.47000000000E+01 0. -1.
         -5    1    4    4    0  501 -0.34115809958E+02  0.93054132578E+02 -0.24640635633E+03  0.26563347402E+03  0.47000000000E+01 0. -1.
          1    1    1    2  502    0  0.41687452706E+01 -0.23862170218E+02 -0.13548175741E+04  0.13550341106E+04  0.00000000000E+00 0. -1.
          1    1    1    2  503    0  0.91971241896E+02 -0.81525798447E+01  0.81727078305E+03  0.82246988195E+03  0.00000000000E+00 0. -1.
<mgrwt>
<rscale>  0 0.47301927E+02</rscale>
<asrwt>0</asrwt>
<pdfrwt beam="1">  1        2 0.25932146E+00 0.92367551E+02</pdfrwt>
<pdfrwt beam="2">  1        2 0.26649476E+00 0.24223575E+02</pdfrwt>
<totfact> 0.24372847E+01</totfact>
</mgrwt>
</event>
<event>
13    1  0.1595792E-008  0.7611443E+02  0.7546771E-02  0.1351668E+00
          2   -1    0    0  503    0  0.00000000000E+00  0.00000000000E+00  0.23975435172E+04  0.23975435172E+04  0.00000000000E+00 0. -1.
          2   -1    0    0  502    0 -0.00000000000E+00 -0.00000000000E+00 -0.25223317527E+04  0.25223317527E+04  0.00000000000E+00 0. -1.
         24    2    1    2    0    0  0.26186249946E+03 -0.25171590687E+02 -0.21714502736E+03  0.35089128229E+03  0.82262697964E+02 0.  0.
         25    2    1    2    0    0  0.19320159828E+03  0.82067059713E+02  0.89565513732E+02  0.26020859543E+03  0.12499868805E+03 0.  0.
         24    2    1    2    0    0 -0.47226152955E+03 -0.68307256133E+02  0.10671766280E+04  0.11732296417E+04  0.99523882671E+02 0.  0.
        -13    1    3    3    0    0  0.19125850166E+03 -0.54953109117E+02 -0.15787674207E+03  0.25401717333E+03  0.00000000000E+00 0.  1.
         14    1    3    3    0    0  0.70603997799E+02  0.29781518430E+02 -0.59268285292E+02  0.96874108959E+02  0.00000000000E+00 0. -1.
        -13    1    5    5    0    0 -0.29257238733E+03 -0.15754206411E+02  0.74593534998E+03  0.80141521273E+03  0.00000000000E+00 0.  1.
         14    1    5    5    0    0 -0.17968914222E+03 -0.52553049721E+02  0.32124127803E+03  0.37181442895E+03  0.00000000000E+00 0. -1.
          5    1    4    4  501    0  0.12761093176E+03  0.89304357965E+02  0.11026111274E+03  0.19089112404E+03  0.47000000000E+01 0. -1.
         -5    1    4    4    0  501  0.65590666521E+02 -0.72372982522E+01 -0.20695599007E+02  0.69317471382E+02  0.47000000000E+01 0. -1.
          1    1    1    2  502    0 -0.49863367206E+02  0.47881149482E+02 -0.20979887225E+04  0.20991273519E+04  0.00000000000E+00 0. -1.
          1    1    1    2  503    0  0.67060799023E+02 -0.36469362376E+02  0.10336033726E+04  0.10364183986E+04  0.00000000000E+00 0. -1.
<mgrwt>
<rscale>  0 0.72538210E+02</rscale>
<asrwt>0</asrwt>
<pdfrwt beam="1">  1        2 0.35257993E+00 0.76114425E+02</pdfrwt>
<pdfrwt beam="2">  1        2 0.37093114E+00 0.69130021E+02</pdfrwt>
<totfact> 0.50677879E+00</totfact>
</mgrwt>
</event>
<event>
13    1  0.1595792E-008  0.1489376E+03  0.7546771E-02  0.1385336E+00
          2   -1    0    0  502    0  0.00000000000E+00  0.00000000000E+00  0.10692864929E+04  0.10692864929E+04  0.00000000000E+00 0. -1.
          2   -1    0    0  503    0 -0.00000000000E+00 -0.00000000000E+00 -0.20222956350E+03  0.20222956350E+03  0.00000000000E+00 0. -1.
         24    2    1    2    0    0 -0.19823577465E+02 -0.75348479886E+02  0.12943094766E+03  0.16888818772E+03  0.75501537026E+02 0.  0.
         25    2    1    2    0    0 -0.88336925591E+02  0.15754240925E+03  0.25054869672E+03  0.33320149171E+03  0.12500224604E+03 0.  0.
         24    2    1    2    0    0  0.31814958291E+02  0.36530314076E+02  0.25789714044E+03  0.27491320736E+03  0.81973661129E+02 0.  0.
        -11    1    3    3    0    0 -0.28911413501E+00  0.12959786539E+02  0.27777452774E+01  0.13257281884E+02  0.00000000000E+00 0.  1.
         12    1    3    3    0    0 -0.19534463330E+02 -0.88308266425E+02  0.12665320239E+03  0.15563090584E+03  0.00000000000E+00 0. -1.
        -13    1    5    5    0    0 -0.22708495709E+02  0.24882539142E+02  0.14674252613E+03  0.15055957461E+03  0.00000000000E+00 0.  1.
         14    1    5    5    0    0  0.54523454000E+02  0.11647774934E+02  0.11115461430E+03  0.12435363275E+03  0.00000000000E+00 0. -1.
          5    1    4    4  501    0 -0.13361302744E+02  0.10706774347E+03  0.20539376010E+03  0.23205756353E+03  0.47000000000E+01 0. -1.
         -5    1    4    4    0  501 -0.74975622847E+02  0.50474665775E+02  0.45154936616E+02  0.10114392818E+03  0.47000000000E+01 0. -1.
          1    1    1    2  502    0 -0.23304955618E+02 -0.13066242246E+02  0.32137577910E+03  0.32248447875E+03  0.00000000000E+00 0. -1.
          1    1    1    2  503    0  0.99650500384E+02 -0.10565800119E+03 -0.92195634542E+02  0.17202869084E+03  0.00000000000E+00 0. -1.
<mgrwt>
<rscale>  0 0.63081732E+02</rscale>
<asrwt>0</asrwt>
<pdfrwt beam="1">  1        2 0.15724801E+00 0.26717927E+02</pdfrwt>
<pdfrwt beam="2">  1        2 0.29739642E-01 0.14893764E+03</pdfrwt>
<totfact> 0.78084034E+02</totfact>
</mgrwt>
</event>
<event>
13    1  0.1595792E-008  0.1050583E+03  0.7546771E-02  0.1278159E+00
         -3   -1    0    0    0  501 -0.00000000000E+00  0.00000000000E+00  0.14330563661E+04  0.14330563661E+04  0.00000000000E+00 0.  1.
          2   -1    0    0  503    0  0.00000000000E+00 -0.00000000000E+00 -0.20529109287E+04  0.20529109287E+04  0.00000000000E+00 0. -1.
         24    2    1    2    0    0  0.43130103575E+02 -0.50108754734E+02 -0.18359965685E+02  0.10586917643E+03  0.80623204125E+02 0.  0.
         25    2    1    2    0    0  0.42715803814E+02 -0.16730416462E+03 -0.35464174781E+03  0.41377512325E+03  0.12499503963E+03 0.  0.
         24    2    1    2    0    0 -0.22486810453E+02  0.15366978066E+03 -0.85051033654E+03  0.86605700456E+03  0.50664035080E+02 0.  0.
        -13    1    5    5    0    0 -0.65001329495E+01  0.11886482286E+03 -0.72892858895E+03  0.73858512416E+03  0.00000000000E+00 0.  1.
         14    1    5    5    0    0 -0.15986677504E+02  0.34804957805E+02 -0.12158174759E+03  0.12747188040E+03  0.00000000000E+00 0. -1.
        -13    1    3    3    0    0  0.50778968581E+02 -0.65453590879E+02 -0.26380724152E+02  0.86940317551E+02  0.00000000000E+00 0.  1.
         14    1    3    3    0    0 -0.76488650064E+01  0.15344836145E+02  0.80207584664E+01  0.18928858882E+02  0.00000000000E+00 0. -1.
          5    1    4    4  502    0  0.41756903926E+02 -0.10294063933E+03 -0.32357556312E+03  0.34214565510E+03  0.47000000000E+01 0. -1.
         -5    1    4    4    0  502  0.95889988761E+00 -0.64363525290E+02 -0.31066184692E+02  0.71629468154E+02  0.47000000000E+01 0. -1.
          1    1    1    2  503    0 -0.11388239194E+03 -0.19227623957E+02 -0.74208662928E+03  0.75102028340E+03  0.00000000000E+00 0. -1.
         -4    1    1    2    0  501  0.50523295000E+02  0.82970762653E+02  0.13457441167E+04  0.13492457072E+04  0.00000000000E+00 0.  1.
<mgrwt>
<rscale>  0 0.10102312E+03</rscale>
<asrwt>0</asrwt>
<pdfrwt beam="2">  1        2 0.30189866E+00 0.10505828E+03</pdfrwt>
<pdfrwt beam="1">  1       -3 0.21074358E+00 0.97142940E+02</pdfrwt>
<totfact> 0.75534827E-01</totfact>
</mgrwt>
</event>
<event>
13    1  0.1595792E-008  0.6666354E+02  0.7546771E-02  0.1386476E+00
          2   -1    0    0  503    0  0.00000000000E+00  0.00000000000E+00  0.29596519149E+03  0.29596519149E+03  0.00000000000E+00 0. -1.
          2   -1    0    0  502    0 -0.00000000000E+00 -0.00000000000E+00 -0.11839333192E+04  0.11839333192E+04  0.00000000000E+00 0. -1.
         24    2    1    2    0    0  0.56140338551E+02  0.10422984190E+03 -0.66038847113E+03  0.67596171709E+03  0.82436112348E+02 0.  0.
         25    2    1    2    0    0 -0.84281554123E+02 -0.79903998385E+02 -0.14899881185E+03  0.22652842746E+03  0.12500581263E+03 0.  0.
         24    2    1    2    0    0 -0.53964300563E+01 -0.11479000260E+02 -0.81036620201E+01  0.76462265391E+02  0.74966124258E+02 0.  0.
        -11    1    5    5    0    0 -0.30309568077E+02  0.18227257914E+02 -0.12345268948E+02  0.37460759649E+02  0.00000000000E+00 0.  1.
         12    1    5    5    0    0  0.24913138021E+02 -0.29706258175E+02  0.42416069277E+01  0.39001505742E+02  0.00000000000E+00 0. -1.
        -13    1    3    3    0    0  0.28138794924E+02  0.93513068573E+02 -0.32813207812E+03  0.34235529273E+03  0.00000000000E+00 0.  1.
         14    1    3    3    0    0  0.28001543627E+02  0.10716773331E+02 -0.33225639301E+03  0.33360642436E+03  0.00000000000E+00 0. -1.
          5    1    4    4  501    0 -0.10926997381E+03 -0.61460866156E+02 -0.75066313265E+02  0.14619988588E+03  0.47000000000E+01 0. -1.
         -5    1    4    4    0  501  0.24988419688E+02 -0.18443132230E+02 -0.73932498588E+02  0.80328541580E+02  0.47000000000E+01 0. -1.
          1    1    1    2  502    0  0.12341250641E+02 -0.68063192055E+02 -0.27731819488E+03  0.28581512520E+03  0.00000000000E+00 0. -1.
          1    1    1    2  503    0  0.21196394987E+02  0.55216348797E+02  0.20684101216E+03  0.21513097556E+03  0.00000000000E+00 0. -1.
<mgrwt>
<rscale>  0 0.62791845E+02</rscale>
<asrwt>0</asrwt>
<pdfrwt beam="1">  1        2 0.43524294E-01 0.59145011E+02</pdfrwt>
<pdfrwt beam="2">  1        2 0.17410784E+00 0.66663539E+02</pdfrwt>
<totfact> 0.42487264E+02</totfact>
</mgrwt>
</event>
<event>
13    1  0.1595792E-008  0.5015357E+03  0.7546771E-02  0.1251810E+00
          2   -1    0    0  503    0  0.00000000000E+00  0.00000000000E+00  0.82115963575E+03  0.82115963575E+03  0.00000000000E+00 0. -1.
          2   -1    0    0  502    0 -0.00000000000E+00 -0.00000000000E+00 -0.41128597939E+04  0.41128597939E+04  0.00000000000E+00 0. -1.
         24    2    1    2    0    0 -0.32868652534E+03  0.28358938424E+03 -0.10302241280E+04  0.11211291818E+04  0.84327442388E+02 0.  0.
         25    2    1    2    0    0 -0.12675320585E+03 -0.13066306803E+03  0.18751214472E+03  0.28969611468E+03  0.12499528752E+03 0.  0.
         24    2    1    2    0    0 -0.80348853491E+02 -0.38312501930E+02  0.24221929566E+03  0.27023100064E+03  0.80192396502E+02 0.  0.
        -11    1    3    3    0    0 -0.18568796670E+03  0.14705813325E+03 -0.45649804806E+03  0.51429231320E+03  0.00000000000E+00 0.  1.
         12    1    3    3    0    0 -0.14299855864E+03  0.13653125099E+03 -0.57372607997E+03  0.60683686861E+03  0.00000000000E+00 0. -1.
        -13    1    5    5    0    0  0.16420914629E+02 -0.28044131595E+01  0.30531523439E+02  0.34780527510E+02  0.00000000000E+00 0.  1.
         14    1    5    5    0    0 -0.96769768120E+02 -0.35508088770E+02  0.21168777222E+03  0.23545047313E+03  0.00000000000E+00 0. -1.
          5    1    4    4  501    0 -0.12267948947E+03 -0.12048635902E+03  0.95171111778E+02  0.19658802192E+03  0.47000000000E+01 0. -1.
         -5    1    4    4    0  501 -0.40737163851E+01 -0.10176709003E+02  0.92341032946E+02  0.93108092757E+02  0.47000000000E+01 0. -1.
          1    1    1    2  502    0  0.55777575246E+03 -0.10016655423E+03 -0.29443838451E+04  0.29984234784E+04  0.00000000000E+00 0. -1.
          1    1    1    2  503    0 -0.21987167776E+02 -0.14447260060E+02  0.25317637458E+03  0.25453965412E+03  0.00000000000E+00 0. -1.
<mgrwt>
<rscale>  0 0.11486888E+03</rscale>
<asrwt>0</asrwt>
<pdfrwt beam="1">  1        2 0.12075877E+00 0.26308912E+02</pdfrwt>
<pdfrwt beam="2">  1        2 0.60483233E+00 0.50153569E+03</pdfrwt>
<totfact> 0.27948413E+00</totfact>
</mgrwt>
</event>
<event>
13    1  0.1595792E-008  0.1209633E+03  0.7546771E-02  0.1315325E+00
          2   -1    0    0  503    0  0.00000000000E+00  0.00000000000E+00  0.36965013871E+04  0.36965013871E+04  0.00000000000E+00 0. -1.
         -3   -1    0    0    0  501 -0.00000000000E+00 -0.00000000000E+00 -0.91870148728E+03  0.91870148728E+03  0.00000000000E+00 0.  1.
         24    2    1    2    0    0  0.91834616887E+01 -0.22115584755E+03 -0.40802513252E+03  0.47721622770E+03  0.11070941395E+03 0.  0.
         25    2    1    2    0    0  0.83721570510E+02  0.11907089725E+03  0.30864151863E+03  0.36341270946E+03  0.12498812115E+03 0.  0.
         24    2    1    2    0    0  0.21990193814E+02  0.24099964453E+03  0.17955406318E+04  0.18136792616E+04  0.83077713588E+02 0.  0.
        -13    1    3    3    0    0  0.54542622385E+02 -0.16503890804E+03 -0.31133194652E+03  0.35656741263E+03  0.00000000000E+00 0.  1.
         14    1    3    3    0    0 -0.45359160697E+02 -0.56116939507E+02 -0.96693185993E+02  0.12064881506E+03  0.00000000000E+00 0. -1.
        -13    1    5    5    0    0  0.35092221957E+01  0.58892349489E+02  0.74321615126E+03  0.74555406978E+03  0.00000000000E+00 0.  1.
         14    1    5    5    0    0  0.18480971618E+02  0.18210729504E+03  0.10523244805E+04  0.10681251919E+04  0.00000000000E+00 0. -1.
          5    1    4    4  502    0  0.12426629974E+02  0.12192494697E+02 -0.94247361804E+01  0.20346835418E+02  0.47000000000E+01 0.  1.
         -5    1    4    4    0  502  0.71294940536E+02  0.10687840256E+03  0.31806625481E+03  0.34306587404E+03  0.47000000000E+01 0.  1.
          1    1    1    2  503    0 -0.79801193101E+02 -0.90511453198E+02  0.15168289157E+04  0.15216210149E+04  0.00000000000E+00 0. -1.
         -4    1    1    2    0  501 -0.35094032912E+02 -0.48403241037E+02 -0.43518603381E+03  0.43927366062E+03  0.00000000000E+00 0.  1.
<mgrwt>
<rscale>  0 0.85041239E+02</rscale>
<asrwt>0</asrwt>
<pdfrwt beam="1">  1        2 0.54360314E+00 0.12096330E+03</pdfrwt>
<pdfrwt beam="2">  1       -3 0.13510316E+00 0.59786829E+02</pdfrwt>
<totfact> 0.30716550E-01</totfact>
</mgrwt>
</event>
<event>
13    1  0.1595792E-008  0.7536241E+02  0.7546771E-02  0.1448547E+00
          2   -1    0    0  503    0  0.00000000000E+00  0.00000000000E+00  0.15780481857E+04  0.15780481857E+04  0.00000000000E+00 0. -1.
         -1   -1    0    0    0  501 -0.00000000000E+00 -0.00000000000E+00 -0.86821201331E+03  0.86821201331E+03  0.00000000000E+00 0.  1.
         24    2    1    2    0    0 -0.62758370875E+02  0.39182504060E+02 -0.19506293908E+03  0.22383364967E+03  0.81105306739E+02 0.  0.
         25    2    1    2    0    0  0.30692076809E+02 -0.10900526911E+03 -0.30821446715E+03  0.35134417660E+03  0.12498968117E+03 0.  0.
         24    2    1    2    0    0  0.84657212497E+02  0.48816980550E+01  0.28272891440E+03  0.30557561856E+03  0.79057858657E+02 0.  0.
        -11    1    3    3    0    0  0.15117259730E+02  0.27019971680E+02 -0.54787438971E+02  0.62930706975E+02  0.00000000000E+00 0.  1.
         12    1    3    3    0    0 -0.77875630606E+02  0.12162532380E+02 -0.14027550011E+03  0.16090294269E+03  0.00000000000E+00 0. -1.
        -11    1    5    5    0    0  0.14072127084E+02 -0.32905342251E+02  0.92767848149E+02  0.99431684887E+02  0.00000000000E+00 0.  1.
         12    1    5    5    0    0  0.70585085413E+02  0.37787040306E+02  0.18996106625E+03  0.20614393367E+03  0.00000000000E+00 0. -1.
          5    1    4    4  502    0  0.68808595677E+02 -0.99824362113E+02 -0.17912349439E+03  0.21634889035E+03  0.47000000000E+01 0. -1.
         -5    1    4    4    0  502 -0.38116518867E+02 -0.91809069969E+01 -0.12909097276E+03  0.13499528626E+03  0.47000000000E+01 0. -1.
          1    1    1    2  503    0 -0.66400418417E+02  0.35636313050E+02  0.12459781220E+04  0.12482549591E+04  0.00000000000E+00 0. -1.
         -2    1    1    2    0  501  0.13809499986E+02  0.29304753945E+02 -0.31559345779E+03  0.31725179510E+03  0.00000000000E+00 0.  1.
<mgrwt>
<rscale>  0 0.49410583E+02</rscale>
<asrwt>0</asrwt>
<pdfrwt beam="1">  1        2 0.23206591E+00 0.75362407E+02</pdfrwt>
<pdfrwt beam="2">  1       -1 0.12767824E+00 0.32395538E+02</pdfrwt>
<totfact> 0.11110790E+01</totfact>
</mgrwt>
</event>
<event>
13    1  0.1595792E-008  0.3309502E+02  0.7546771E-02  0.1714194E+00
         -1   -1    0    0    0  501  0.00000000000E+00  0.00000000000E+00  0.45395475697E+03  0.45395475697E+03  0.00000000000E+00 0.  1.
         -3   -1    0    0    0  502 -0.00000000000E+00 -0.00000000000E+00 -0.85656370335E+03  0.85656370335E+03  0.00000000000E+00 0.  1.
         24    2    1    2    0    0 -0.77517015335E+01 -0.16955908516E+02 -0.18626247608E+02  0.83987138001E+02  0.79745285374E+02 0.  0.
         25    2    1    2    0    0 -0.19588491896E+02  0.17288954343E+03 -0.32647217205E+03  0.39049693517E+03  0.12501709486E+03 0.  0.
         24    2    1    2    0    0  0.34539610390E+02 -0.18127499117E+03  0.31799260532E+03  0.37603320191E+03  0.78918089119E+02 0.  0.
        -11    1    3    3    0    0 -0.13753219237E+02  0.30817295447E+02 -0.77097706760E+01  0.34616431097E+02  0.00000000000E+00 0.  1.
         12    1    3    3    0    0  0.60015177035E+01 -0.47773203963E+02 -0.10916476932E+02  0.49370706904E+02  0.00000000000E+00 0. -1.
        -11    1    5    5    0    0 -0.34825196639E+01 -0.87153718610E+02  0.21214652492E+03  0.22937751993E+03  0.00000000000E+00 0.  1.
         12    1    5    5    0    0  0.38022130054E+02 -0.94121272563E+02  0.10584608040E+03  0.14665568198E+03  0.00000000000E+00 0. -1.
          5    1    4    4  503    0 -0.59940372722E+02  0.86091998911E+02 -0.10186206980E+03  0.14629645185E+03  0.47000000000E+01 0.  1.
         -5    1    4    4    0  503  0.40351880826E+02  0.86797544515E+02 -0.22461010225E+03  0.24420048332E+03  0.47000000000E+01 0.  1.
         -2    1    1    2    0  501 -0.21375432366E+02  0.25442494594E+02  0.35573836340E+02  0.48679846672E+02  0.00000000000E+00 0.  1.
         -4    1    1    2    0  502  0.14176015406E+02 -0.10113833064E+00 -0.41107696838E+03  0.41132133858E+03  0.00000000000E+00 0.  1.
<mgrwt>
<rscale>  0 0.21660273E+02</rscale>
<asrwt>0</asrwt>
<pdfrwt beam="1">  1       -1 0.66758053E-01 0.33095020E+02</pdfrwt>
<pdfrwt beam="2">  1       -3 0.12596525E+00 0.14176376E+02</pdfrwt>
<totfact> 0.55530483E+00</totfact>
</mgrwt>
</event>
<event>
13    1  0.1595792E-008  0.7301620E+02  0.7546771E-02  0.1427886E+00
          2   -1    0    0  503    0  0.00000000000E+00  0.00000000000E+00  0.69441599528E+03  0.69441599528E+03  0.00000000000E+00 0. -1.
         -1   -1    0    0    0  501 -0.00000000000E+00 -0.00000000000E+00 -0.11750637540E+04  0.11750637540E+04  0.00000000000E+00 0.  1.
         24    2    1    2    0    0  0.35192955880E+02 -0.37153652361E+02 -0.49991666550E+03  0.50603334323E+03  0.59448582778E+02 0.  0.
         25    2    1    2    0    0 -0.13833421523E+03 -0.14766469410E+02 -0.25749543990E+03  0.31826048876E+03  0.12502573101E+03 0.  0.
         24    2    1    2    0    0  0.12982103457E+03  0.17651261807E+02  0.19528091721E+03  0.24844914171E+03  0.80170264607E+02 0.  0.
        -11    1    3    3    0    0 -0.49004765598E+01 -0.28174375135E+02 -0.99911882183E+02  0.10392398321E+03  0.00000000000E+00 0.  1.
         12    1    3    3    0    0  0.40093432440E+02 -0.89792772259E+01 -0.40000478331E+03  0.40210936002E+03  0.00000000000E+00 0. -1.
        -11    1    5    5    0    0  0.54904682590E+02 -0.38852560982E+01  0.23576062210E+02  0.59878628029E+02  0.00000000000E+00 0.  1.
         12    1    5    5    0    0  0.74916351983E+02  0.21536517905E+02  0.17170485500E+03  0.18857051368E+03  0.00000000000E+00 0. -1.
          5    1    4    4  502    0 -0.14211770630E+03  0.37425699242E+01 -0.26214004983E+03  0.29824645010E+03  0.47000000000E+01 0. -1.
         -5    1    4    4    0  502  0.37834910663E+01 -0.18509039334E+02  0.46446099370E+01  0.20014038653E+02  0.47000000000E+01 0. -1.
          1    1    1    2  503    0 -0.65660560060E+02  0.32227240116E+02  0.43498245575E+03  0.44108915308E+03  0.00000000000E+00 0. -1.
         -2    1    1    2    0  501  0.38980784838E+02  0.20416198479E+01 -0.35349902629E+03  0.35564762249E+03  0.00000000000E+00 0.  1.
<mgrwt>
<rscale>  0 0.53386608E+02</rscale>
<asrwt>0</asrwt>
<pdfrwt beam="1">  1        2 0.10212000E+00 0.73016199E+02</pdfrwt>
<pdfrwt beam="2">  1       -1 0.17280349E+00 0.39034213E+02</pdfrwt>
<totfact> 0.15954543E+01</totfact>
</mgrwt>
</event>
<event>
13    1  0.1595792E-008  0.5374768E+02  0.7546771E-02  0.1476052E+00
          2   -1    0    0  503    0  0.00000000000E+00  0.00000000000E+00  0.42580788739E+03  0.42580788739E+03  0.00000000000E+00 0. -1.
         -1   -1    0    0    0  501 -0.00000000000E+00 -0.00000000000E+00 -0.56510438950E+03  0.56510438950E+03  0.00000000000E+00 0.  1.
         24    2    1    2    0    0  0.25993922752E+02  0.75498098505E+02 -0.22000620674E+03  0.24788526830E+03  0.81662282236E+02 0.  0.
         25    2    1    2    0    0  0.38015566164E+02 -0.11308107539E+03 -0.11925768290E+03  0.20994417098E+03  0.12498658774E+03 0.  0.
         24    2    1    2    0    0  0.15533153858E+02  0.18152273507E+02  0.16159169285E+03  0.18348284569E+03  0.83566114911E+02 0.  0.
        -11    1    3    3    0    0 -0.16995261252E+02  0.52382739207E+01 -0.10459285283E+03  0.10609403037E+03  0.00000000000E+00 0.  1.
         12    1    3    3    0    0  0.42989184004E+02  0.70259824584E+02 -0.11541335391E+03  0.14179123793E+03  0.00000000000E+00 0. -1.
        -11    1    5    5    0    0 -0.24394591777E+02  0.35718847888E+02  0.77716436132E+02  0.88942546891E+02  0.00000000000E+00 0.  1.
         12    1    5    5    0    0  0.39927745636E+02 -0.17566574381E+02  0.83875256715E+02  0.94540298794E+02  0.00000000000E+00 0. -1.
          5    1    4    4  502    0 -0.39964993185E+02 -0.60057127852E+02 -0.24899935190E+02  0.76460159943E+02  0.47000000000E+01 0.  1.
         -5    1    4    4    0  502  0.77980559348E+02 -0.53023947535E+02 -0.94357747713E+02  0.13348401103E+03  0.47000000000E+01 0.  1.
          1    1    1    2  503    0 -0.26655870399E+02  0.25977689692E+02  0.18754224432E+03  0.19120007634E+03  0.00000000000E+00 0. -1.
         -2    1    1    2    0  501 -0.52886772375E+02 -0.65469863173E+01 -0.14916654965E+03  0.15839991558E+03  0.00000000000E+00 0.  1.
<mgrwt>
<rscale>  0 0.44727207E+02</rscale>
<asrwt>0</asrwt>
<pdfrwt beam="1">  1        2 0.62618807E-01 0.37220637E+02</pdfrwt>
<pdfrwt beam="2">  1       -1 0.83103586E-01 0.53747685E+02</pdfrwt>
<totfact> 0.14424532E+02</totfact>
</mgrwt>
</event>
<event>
13    1  0.1595792E-008  0.5931871E+02  0.7546771E-02  0.1539982E+00
          2   -1    0    0  503    0  0.00000000000E+00  0.00000000000E+00  0.17492959558E+04  0.17492959558E+04  0.00000000000E+00 0. -1.
         -1   -1    0    0    0  501 -0.00000000000E+00 -0.00000000000E+00 -0.74120549617E+03  0.74120549617E+03  0.00000000000E+00 0.  1.
         24    2    1    2    0    0 -0.25292021555E+03  0.72507651316E+01 -0.51203708186E+03  0.57681287361E+03  0.80684006727E+02 0.  0.
         25    2    1    2    0    0  0.22491939252E+03  0.13019395493E+03  0.20373902401E+03  0.35309597121E+03  0.12501190322E+03 0.  0.
         24    2    1    2    0    0  0.35117432993E+02 -0.99804711859E+02  0.36060789193E+03  0.38521123497E+03  0.84589770147E+02 0.  0.
        -11    1    3    3    0    0 -0.23755944175E+03 -0.15400145196E+02 -0.45309634764E+03  0.51182805030E+03  0.00000000000E+00 0.  1.
         12    1    3    3    0    0 -0.15360773807E+02  0.22650910327E+02 -0.58940734218E+02  0.64984823311E+02  0.00000000000E+00 0. -1.
        -13    1    5    5    0    0 -0.77181925741E+01  0.12819880009E+02  0.39307915459E+02  0.42059862550E+02  0.00000000000E+00 0.  1.
         14    1    5    5    0    0  0.42835625567E+02 -0.11262459187E+03  0.32129997647E+03  0.34315137242E+03  0.00000000000E+00 0. -1.
          5    1    4    4  502    0  0.10709520144E+03  0.37196139729E+02  0.19051111969E+02  0.11505637683E+03  0.47000000000E+01 0.  1.
         -5    1    4    4    0  502  0.11782419108E+03  0.92997815199E+02  0.18468791205E+03  0.23803959438E+03  0.47000000000E+01 0.  1.
          1    1    1    2  503    0  0.99711904445E+01  0.19426235731E+02  0.10573804287E+04  0.10576058691E+04  0.00000000000E+00 0. -1.
         -2    1    1    2    0  501 -0.17087800404E+02 -0.57066243931E+02 -0.10159980319E+03  0.11777550309E+03  0.00000000000E+00 0.  1.
<mgrwt>
<rscale>  0 0.35989902E+02</rscale>
<asrwt>0</asrwt>
<pdfrwt beam="1">  1        2 0.25724941E+00 0.21835825E+02</pdfrwt>
<pdfrwt beam="2">  1       -1 0.10900081E+00 0.59318711E+02</pdfrwt>
<totfact> 0.14449892E+01</totfact>
</mgrwt>
</event>
<event>
13    1  0.1595792E-008  0.1342826E+03  0.7546771E-02  0.1314046E+00
          2   -1    0    0  503    0  0.00000000000E+00  0.00000000000E+00  0.15528471834E+04  0.15528471834E+04  0.00000000000E+00 0. -1.
          2   -1    0    0  502    0 -0.00000000000E+00 -0.00000000000E+00 -0.18551686417E+04  0.18551686417E+04  0.00000000000E+00 0. -1.
         24    2    1    2    0    0  0.16835569259E+03 -0.16462079415E+03 -0.36241675542E+03  0.43552278382E+03  0.53763793811E+02 0.  0.
         25    2    1    2    0    0 -0.66476788874E+02  0.11899409250E+02 -0.21206803621E+03  0.25526113492E+03  0.12499854246E+03 0.  0.
         24    2    1    2    0    0  0.10487683769E+02  0.34986117866E+02  0.12856508050E+03  0.15555172013E+03  0.79582270371E+02 0.  0.
        -11    1    3    3    0    0  0.56190639172E+02 -0.85250891582E+02 -0.12717576606E+03  0.16309131773E+03  0.00000000000E+00 0.  1.
         12    1    3    3    0    0  0.11216505342E+03 -0.79369902571E+02 -0.23524098936E+03  0.27243146609E+03  0.00000000000E+00 0. -1.
        -11    1    5    5    0    0  0.40218858581E+02  0.39024075066E+02  0.69289141051E+02  0.89114645755E+02  0.00000000000E+00 0.  1.
         12    1    5    5    0    0 -0.29731174812E+02 -0.40379572007E+01  0.59275939452E+02  0.66437074378E+02  0.00000000000E+00 0. -1.
          5    1    4    4  501    0 -0.26172560962E+02  0.57522059608E+02 -0.16914506366E+03  0.18062650096E+03  0.47000000000E+01 0.  1.
         -5    1    4    4    0  501 -0.40304227912E+02 -0.45622650358E+02 -0.42922972550E+02  0.74634633956E+02  0.47000000000E+01 0.  1.
          1    1    1    2  502    0 -0.11625899225E+03  0.63393677265E+02 -0.12048634652E+04  0.12121183447E+04  0.00000000000E+00 0. -1.
          1    1    1    2  503    0  0.38924047634E+01  0.54341589773E+02  0.13484617180E+04  0.13495618415E+04  0.00000000000E+00 0. -1.
<mgrwt>
<rscale>  0 0.85532609E+02</rscale>
<asrwt>0</asrwt>
<pdfrwt beam="1">  1        2 0.22835988E+00 0.54480815E+02</pdfrwt>
<pdfrwt beam="2">  1        2 0.27281892E+00 0.13428263E+03</pdfrwt>
<totfact> 0.25836923E+01</totfact>
</mgrwt>
</event>
<event>
13    1  0.1595792E-008  0.9511786E+02  0.7546771E-02  0.1398640E+00
          2   -1    0    0  502    0  0.00000000000E+00  0.00000000000E+00  0.38549237998E+04  0.38549237998E+04  0.00000000000E+00 0. -1.
          2   -1    0    0  503    0 -0.00000000000E+00 -0.00000000000E+00 -0.30570717387E+03  0.30570717387E+03  0.00000000000E+00 0. -1.
         24    2    1    2    0    0  0.55680292964E+01 -0.55692201664E+02 -0.13496040861E+01  0.97039748763E+02  0.79260754049E+02 0.  0.
         25    2    1    2    0    0  0.18499132479E+03  0.30457082679E+02  0.13119109495E+03  0.26074042335E+03  0.12500016337E+03 0.  0.
         24    2    1    2    0    0 -0.87582162270E+02 -0.45393639181E+02  0.81097234009E+03  0.82087108448E+03  0.80137277992E+02 0.  0.
        -11    1    5    5    0    0 -0.89332752666E+02 -0.52703793706E+02  0.54438681905E+03  0.55417960926E+03  0.00000000000E+00 0.  1.
         12    1    5    5    0    0  0.17505903963E+01  0.73101545256E+01  0.26658552104E+03  0.26669147522E+03  0.00000000000E+00 0. -1.
        -13    1    3    3    0    0 -0.31269157923E+02 -0.13002305404E+01 -0.17702199201E+01  0.31346204160E+02  0.00000000000E+00 0.  1.
         14    1    3    3    0    0  0.36837187219E+02 -0.54391971124E+02  0.42061583408E+00  0.65693544604E+02  0.00000000000E+00 0. -1.
          5    1    4    4  501    0  0.17649079640E+03  0.47093815798E+02  0.68479943740E+02  0.19513692986E+03  0.47000000000E+01 0. -1.
         -5    1    4    4    0  501  0.85005283830E+01 -0.16636733119E+02  0.62711151210E+02  0.65603493487E+02  0.47000000000E+01 0. -1.
          1    1    1    2  502    0 -0.87973728389E+02  0.36145570029E+02  0.27924806334E+04  0.27940998491E+04  0.00000000000E+00 0. -1.
          1    1    1    2  503    0 -0.15003463423E+02  0.34483188137E+02 -0.18407783842E+03  0.18787986793E+03  0.00000000000E+00 0. -1.
<mgrwt>
<rscale>  0 0.59807864E+02</rscale>
<asrwt>0</asrwt>
<pdfrwt beam="1">  1        2 0.56690053E+00 0.95117858E+02</pdfrwt>
<pdfrwt beam="2">  1        2 0.44956940E-01 0.37605773E+02</pdfrwt>
<totfact> 0.15936837E+01</totfact>
</mgrwt>
</event>
<event>
13    1  0.1595792E-008  0.5204082E+03  0.7546771E-02  0.1170465E+00
          2   -1    0    0  503    0  0.00000000000E+00  0.00000000000E+00  0.22961903226E+04  0.22961903226E+04  0.00000000000E+00 0. -1.
          2   -1    0    0  502    0 -0.00000000000E+00 -0.00000000000E+00 -0.31094632277E+04  0.31094632277E+04  0.00000000000E+00 0. -1.
         24    2    1    2    0    0 -0.33204847163E+03 -0.20227375290E+03 -0.35420297449E+03  0.53147742488E+03  0.76404498552E+02 0.  0.
         25    2    1    2    0    0 -0.13949079722E+03  0.23702818893E+03  0.23400842165E+03  0.38213394343E+03  0.12500545773E+03 0.  0.
         24    2    1    2    0    0 -0.63941701339E+02 -0.47025437347E+01  0.62583041235E+02  0.12016592568E+03  0.80078446272E+02 0.  0.
        -11    1    5    5    0    0 -0.60645311842E+02  0.29948378479E+02  0.38336575229E+02  0.77746075285E+02  0.00000000000E+00 0.  1.
         12    1    5    5    0    0 -0.32963894971E+01 -0.34650922214E+02  0.24246466006E+02  0.42419850398E+02  0.00000000000E+00 0. -1.
        -13    1    3    3    0    0 -0.29178653491E+03 -0.15210003325E+03 -0.27083836110E+03  0.42617745120E+03  0.00000000000E+00 0.  1.
         14    1    3    3    0    0 -0.40261936726E+02 -0.50173719650E+02 -0.83364613393E+02  0.10529997369E+03  0.00000000000E+00 0. -1.
          5    1    4    4  501    0 -0.14999900197E+03  0.21829453363E+03  0.17075811107E+03  0.31517078942E+03  0.47000000000E+01 0. -1.
         -5    1    4    4    0  501  0.10508204740E+02  0.18733655294E+02  0.63250310575E+02  0.66963154013E+02  0.47000000000E+01 0. -1.
          1    1    1    2  502    0  0.58793321690E+03 -0.12488177390E+00 -0.25295414781E+04  0.25969685351E+04  0.00000000000E+00 0. -1.
          1    1    1    2  503    0 -0.52452246710E+02 -0.29927010522E+02  0.17738800846E+04  0.17749077211E+04  0.00000000000E+00 0. -1.
<mgrwt>
<rscale>  0 0.17727682E+03</rscale>
<asrwt>0</asrwt>
<pdfrwt beam="1">  1        2 0.33767505E+00 0.60389272E+02</pdfrwt>
<pdfrwt beam="2">  1        2 0.45727400E+00 0.52040821E+03</pdfrwt>
<totfact> 0.21694550E+00</totfact>
</mgrwt>
</event>
<event>
13    1  0.1595792E-008  0.5080107E+02  0.7546771E-02  0.1620364E+00
          2   -1    0    0  503    0  0.00000000000E+00  0.00000000000E+00  0.20817357115E+04  0.20817357115E+04  0.00000000000E+00 0. -1.
          2   -1    0    0  502    0 -0.00000000000E+00 -0.00000000000E+00 -0.77983879622E+03  0.77983879622E+03  0.00000000000E+00 0. -1.
         24    2    1    2    0    0  0.51913250198E+02 -0.45465990661E+03 -0.17277931322E+03  0.49567714923E+03  0.80203048378E+02 0.  0.
         25    2    1    2    0    0 -0.31440991726E+03  0.29528342903E+03 -0.10597927395E+03  0.46141496813E+03  0.12500506701E+03 0.  0.
         24    2    1    2    0    0  0.26311636432E+03  0.93984472162E+02  0.25860057469E+03  0.39127864169E+03  0.90340555859E+02 0.  0.
        -11    1    3    3    0    0  0.42579039695E+00 -0.31395455486E+03 -0.13049554492E+03  0.33999519270E+03  0.00000000000E+00 0.  1.
         12    1    3    3    0    0  0.51487459801E+02 -0.14070535175E+03 -0.42283768294E+02  0.15568195653E+03  0.00000000000E+00 0. -1.
        -13    1    5    5    0    0  0.11099010192E+03  0.39560248073E+02  0.51456382794E+02  0.12857517366E+03  0.00000000000E+00 0.  1.
         14    1    5    5    0    0  0.15212626241E+03  0.54424224089E+02  0.20714419189E+03  0.26270346803E+03  0.00000000000E+00 0. -1.
          5    1    4    4  501    0 -0.26328803892E+03  0.20710184433E+03 -0.12508777474E+03  0.35760425997E+03  0.47000000000E+01 0. -1.
         -5    1    4    4    0  501 -0.51121878339E+02  0.88181584706E+02  0.19108500790E+02  0.10381070816E+03  0.47000000000E+01 0. -1.
          1    1    1    2  502    0  0.44815559901E+01  0.14857279632E+02 -0.94486310452E+02  0.95752211280E+02  0.00000000000E+00 0. -1.
          1    1    1    2  503    0 -0.51012532525E+01  0.50534725784E+02  0.14165412382E+04  0.14174515374E+04  0.00000000000E+00 0. -1.
<mgrwt>
<rscale>  0 0.28077665E+02</rscale>
<asrwt>0</asrwt>
<pdfrwt beam="1">  1        2 0.30613760E+00 0.50801074E+02</pdfrwt>
<pdfrwt beam="2">  1        2 0.11468218E+00 0.15518476E+02</pdfrwt>
<totfact> 0.60048076E+01</totfact>
</mgrwt>
</event>
<event>
13    1  0.1595792E-008  0.1032796E+03  0.7546771E-02  0.1381236E+00
          2   -1    0    0  502    0  0.00000000000E+00  0.00000000000E+00  0.32793796287E+04  0.32793796287E+04  0.00000000000E+00 0. -1.
          2   -1    0    0  503    0 -0.00000000000E+00 -0.00000000000E+00 -0.10952648342E+04  0.10952648342E+04  0.00000000000E+00 0. -1.
         24    2    1    2    0    0  0.12452480270E+03 -0.81132259587E+01  0.12541364279E+02  0.14883277908E+03  0.80135256831E+02 0.  0.
         25    2    1    2    0    0 -0.17385296317E+03  0.96720674003E+02  0.11957405078E+03  0.26363418450E+03  0.12500115213E+03 0.  0.
         24    2    1    2    0    0  0.38554050218E+02  0.56236207447E+01  0.68969964076E+03  0.69571976113E+03  0.82597528171E+02 0.  0.
        -11    1    3    3    0    0  0.86131817168E+02 -0.40620279904E+02  0.21771355814E+02  0.97686687948E+02  0.00000000000E+00 0.  1.
         12    1    3    3    0    0  0.38392985528E+02  0.32507053945E+02 -0.92299915346E+01  0.51146091128E+02  0.00000000000E+00 0. -1.
        -13    1    5    5    0    0 -0.20966815676E+02 -0.72286236181E+01  0.80979480000E+02  0.83961518209E+02  0.00000000000E+00 0.  1.
         14    1    5    5    0    0  0.59520865894E+02  0.12852244363E+02  0.60872016076E+03  0.61175824292E+03  0.00000000000E+00 0. -1.
          5    1    4    4  501    0 -0.10255139643E+03  0.11281234149E+03  0.11352206642E+03  0.19013879895E+03  0.47000000000E+01 0. -1.
         -5    1    4    4    0  501 -0.71301566744E+02 -0.16091667484E+02  0.60519843556E+01  0.73495385550E+02  0.47000000000E+01 0. -1.
          1    1    1    2  502    0 -0.39625272351E+02 -0.40615374762E+01  0.23114047022E+04  0.23117479006E+04  0.00000000000E+00 0. -1.
          1    1    1    2  503    0  0.50399382610E+02 -0.90169531313E+02 -0.94910496358E+03  0.95470983761E+03  0.00000000000E+00 0. -1.
<mgrwt>
<rscale>  0 0.64139873E+02</rscale>
<asrwt>0</asrwt>
<pdfrwt beam="1">  1        2 0.48226171E+00 0.39832880E+02</pdfrwt>
<pdfrwt beam="2">  1        2 0.16106836E+00 0.10327959E+03</pdfrwt>
<totfact> 0.96920186E+00</totfact>
</mgrwt>
</event>
<event>
13    1  0.1595792E-008  0.2047023E+03  0.7546771E-02  0.1171535E+00
         -3   -1    0    0    0  501 -0.00000000000E+00  0.00000000000E+00  0.25211792973E+04  0.25211792973E+04  0.00000000000E+00 0.  1.
          2   -1    0    0  503    0  0.00000000000E+00 -0.00000000000E+00 -0.35943451878E+04  0.35943451878E+04  0.00000000000E+00 0. -1.
         24    2    1    2    0    0  0.23661550128E+02  0.26066069865E+03  0.75510164430E+03  0.80307698768E+03  0.79058751177E+02 0.  0.
         25    2    1    2    0    0  0.26928964037E+03 -0.40472601706E+03 -0.78117297188E+03  0.92853444151E+03  0.12499975112E+03 0.  0.
         24    2    1    2    0    0 -0.31223208074E+03 -0.13550278101E+03 -0.71785654597E+03  0.79743787235E+03  0.68842310722E+02 0.  0.
        -11    1    3    3    0    0  0.24165473748E+01  0.38578931533E+02  0.21936799607E+03  0.22274759563E+03  0.00000000000E+00 0.  1.
         12    1    3    3    0    0  0.21245002753E+02  0.22208176712E+03  0.53573364823E+03  0.58032939205E+03  0.00000000000E+00 0. -1.
        -13    1    5    5    0    0 -0.13511925221E+03 -0.94379446796E+02 -0.36512937590E+03  0.40060473467E+03  0.00000000000E+00 0.  1.
         14    1    5    5    0    0 -0.17711282854E+03 -0.41123334217E+02 -0.35272717007E+03  0.39683313767E+03  0.00000000000E+00 0. -1.
          5    1    4    4  502    0  0.20589873343E+03 -0.22761036201E+03 -0.40772556648E+03  0.51035575129E+03  0.47000000000E+01 0. -1.
         -5    1    4    4    0  502  0.63390906934E+02 -0.17711565505E+03 -0.37344740541E+03  0.41817869022E+03  0.47000000000E+01 0. -1.
          1    1    1    2  503    0 -0.95732118202E+02  0.18070945348E+03 -0.19489644349E+04  0.19596639797E+04  0.00000000000E+00 0. -1.
         -4    1    1    2    0  501  0.11501300845E+03  0.98858645942E+02  0.16197264179E+04  0.16268112038E+04  0.00000000000E+00 0.  1.
<mgrwt>
<rscale>  0 0.17619686E+03</rscale>
<asrwt>0</asrwt>
<pdfrwt beam="2">  1        2 0.52858017E+00 0.20470231E+03</pdfrwt>
<pdfrwt beam="1">  1       -3 0.37076167E+00 0.15166088E+03</pdfrwt>
<totfact> 0.14083663E-02</totfact>
</mgrwt>
</event>
<event>
13    1  0.1595792E-008  0.2712529E+02  0.7546771E-02  0.1657347E+00
          2   -1    0    0  503    0  0.00000000000E+00  0.00000000000E+00  0.20973426207E+04  0.20973426207E+04  0.00000000000E+00 0. -1.
         -1   -1    0    0    0  501 -0.00000000000E+00 -0.00000000000E+00 -0.12926295821E+04  0.12926295821E+04  0.00000000000E+00 0.  1.
         24    2    1    2    0    0  0.99211853684E+02  0.33424950850E+03 -0.27920212778E+03  0.45058776006E+03  0.59243358385E+02 0.  0.
         25    2    1    2    0    0 -0.27465313339E+03 -0.16507960290E+02  0.37570034528E+03  0.48216224248E+03  0.12499128847E+03 0.  0.
         24    2    1    2    0    0  0.19378910868E+03 -0.27628117133E+03  0.95121517485E+03  0.10125222879E+04  0.80657116265E+02 0.  0.
        -11    1    3    3    0    0  0.25581824973E+02  0.71250337602E+02 -0.93580812565E+02  0.12036780657E+03  0.00000000000E+00 0.  1.
         12    1    3    3    0    0  0.73630028711E+02  0.26299917090E+03 -0.18562131521E+03  0.33021995349E+03  0.00000000000E+00 0. -1.
        -13    1    5    5    0    0  0.76846537532E+02 -0.10716906981E+03  0.49223018686E+03  0.50958920388E+03  0.00000000000E+00 0.  1.
         14    1    5    5    0    0  0.11694257114E+03 -0.16911210152E+03  0.45898498799E+03  0.50293308404E+03  0.00000000000E+00 0. -1.
          5    1    4    4  502    0 -0.12559868259E+03  0.36160665151E+02  0.10122692887E+03  0.16538320320E+03  0.47000000000E+01 0.  1.
         -5    1    4    4    0  502 -0.14905445080E+03 -0.52668625441E+02  0.27447341641E+03  0.31677903928E+03  0.47000000000E+01 0.  1.
          1    1    1    2  503    0 -0.20259847283E+02 -0.18022121066E+02  0.60037987743E+03  0.60099189303E+03  0.00000000000E+00 0. -1.
         -2    1    1    2    0  501  0.19120183137E+01 -0.23438255817E+02 -0.84338023116E+03  0.84370801938E+03  0.00000000000E+00 0.  1.
<mgrwt>
<rscale>  0 0.25256315E+02</rscale>
<asrwt>0</asrwt>
<pdfrwt beam="1">  1        2 0.30843274E+00 0.27125290E+02</pdfrwt>
<pdfrwt beam="2">  1       -1 0.19009259E+00 0.23516115E+02</pdfrwt>
<totfact> 0.26529866E+00</totfact>
</mgrwt>
</event>
<event>
13    1  0.1595792E-008  0.4023434E+02  0.7546771E-02  0.1531040E+00
         -1   -1    0    0    0  501 -0.00000000000E+00  0.00000000000E+00  0.35570820678E+04  0.35570820678E+04  0.00000000000E+00 0.  1.
          2   -1    0    0  503    0  0.00000000000E+00 -0.00000000000E+00 -0.24401163034E+04  0.24401163034E+04  0.00000000000E+00 0. -1.
         24    2    1    2    0    0 -0.60135774840E+01 -0.28495985735E+02  0.65739560953E+03  0.66318648876E+03  0.82456941018E+02 0.  0.
         25    2    1    2    0    0 -0.60325316867E+02  0.13294267895E+02  0.32866340987E+03  0.35701395531E+03  0.12499378338E+03 0.  0.
         24    2    1    2    0    0  0.10321068463E+02 -0.30936502226E+02 -0.58940610356E+03  0.59585932469E+03  0.81149173038E+02 0.  0.
        -11    1    3    3    0    0 -0.41852871486E+02 -0.20290897950E+02  0.26303445769E+03  0.26711516116E+03  0.00000000000E+00 0.  1.
         12    1    3    3    0    0  0.35839294002E+02 -0.82050877849E+01  0.39436115184E+03  0.39607132759E+03  0.00000000000E+00 0. -1.
        -13    1    5    5    0    0 -0.15774305997E+02 -0.40586584903E+02 -0.16852752416E+03  0.17406213259E+03  0.00000000000E+00 0.  1.
         14    1    5    5    0    0  0.26095374460E+02  0.96500826771E+01 -0.42087857940E+03  0.42179719210E+03  0.00000000000E+00 0. -1.
          5    1    4    4  502    0  0.13060567844E+02 -0.38027391768E+02  0.17008960874E+03  0.17484057298E+03  0.47000000000E+01 0. -1.
         -5    1    4    4    0  502 -0.73385884711E+02  0.51321659663E+02  0.15857380113E+03  0.18217338233E+03  0.47000000000E+01 0. -1.
          1    1    1    2  503    0  0.25281623852E+02  0.31290518249E+02 -0.18300776301E+04  0.18305197047E+04  0.00000000000E+00 0. -1.
         -2    1    1    2    0  501  0.30736202036E+02  0.14847701818E+02  0.25503904786E+04  0.25506188977E+04  0.00000000000E+00 0.  1.
<mgrwt>
<rscale>  0 0.37059165E+02</rscale>
<asrwt>0</asrwt>
<pdfrwt beam="2">  1        2 0.35884063E+00 0.40234344E+02</pdfrwt>
<pdfrwt beam="1">  1       -1 0.52310031E+00 0.34134563E+02</pdfrwt>
<totfact> 0.13776497E-02</totfact>
</mgrwt>
</event>
<event>
13    1  0.1032046E-007  0.7054174E+02  0.7546771E-02  0.1372322E+00
          2   -1    0    0  502    0  0.00000000000E+00  0.00000000000E+00  0.30896243782E+04  0.30896243782E+04  0.00000000000E+00 0. -1.
          2   -1    0    0  503    0 -0.00000000000E+00 -0.00000000000E+00 -0.26330043918E+04  0.26330043918E+04  0.00000000000E+00 0. -1.
         24    2    1    2    0    0  0.28032468493E+03  0.71229423990E+03  0.19034155002E+03  0.79291363743E+03  0.80852443264E+02 0.  0.
         25    2    1    2    0    0  0.51727055250E+03 -0.55695234389E+03  0.28783367081E+03  0.82233658615E+03  0.12499800405E+03 0.  0.
         24    2    1    2    0    0 -0.89281576734E+03 -0.13910458873E+03  0.11041358607E+04  0.14309235683E+04  0.10934431125E+03 0.  0.
        -13    1    3    3    0    0  0.13642490107E+03  0.27456738013E+03  0.45754918187E+02  0.30998792299E+03  0.00000000000E+00 0.  1.
         14    1    3    3    0    0  0.14389978386E+03  0.43772685978E+03  0.14458663183E+03  0.48292571444E+03  0.00000000000E+00 0. -1.
        -13    1    5    5    0    0 -0.35269938193E+03 -0.95577573881E+02  0.38947990128E+03  0.53406602601E+03  0.00000000000E+00 0.  1.
         14    1    5    5    0    0 -0.54011638541E+03 -0.43527014854E+02  0.71465595944E+03  0.89685754229E+03  0.00000000000E+00 0. -1.
          5    1    4    4  501    0  0.38191487244E+03 -0.33273835953E+03  0.16272501420E+03  0.53204821768E+03  0.47000000000E+01 0.  1.
         -5    1    4    4    0  501  0.13535568007E+03 -0.22421398436E+03  0.12510865662E+03  0.29028836847E+03  0.47000000000E+01 0.  1.
          1    1    1    2  502    0  0.49997213046E+02  0.37900202186E+02  0.77345696240E+03  0.77599730626E+03  0.00000000000E+00 0. -1.
          1    1    1    2  503    0  0.45223316855E+02 -0.54137509463E+02 -0.18991480575E+04  0.19004576719E+04  0.00000000000E+00 0. -1.
<mgrwt>
<rscale>  0 0.66525922E+02</rscale>
<asrwt>0</asrwt>
<pdfrwt beam="1">  1        2 0.45435653E+00 0.62738717E+02</pdfrwt>
<pdfrwt beam="2">  1        2 0.38720653E+00 0.70541739E+02</pdfrwt>
<totfact> 0.20488013E+00</totfact>
</mgrwt>
</event>
<event>
13    1  0.1595792E-008  0.6253281E+02  0.7546771E-02  0.1394768E+00
          4   -1    0    0  503    0 -0.00000000000E+00  0.00000000000E+00  0.16643958190E+03  0.16643958190E+03  0.00000000000E+00 0. -1.
          2   -1    0    0  502    0  0.00000000000E+00 -0.00000000000E+00 -0.11819099883E+04  0.11819099883E+04  0.00000000000E+00 0. -1.
         24    2    1    2    0    0 -0.34141362709E+02  0.31387414760E+02 -0.35014120648E+02  0.10000525180E+03  0.81389552705E+02 0.  0.
         25    2    1    2    0    0 -0.11478060018E+03  0.15442176907E+03 -0.13285980435E+03  0.26513681865E+03  0.12500054422E+03 0.  0.
         24    2    1    2    0    0  0.13491218784E+03 -0.13982903879E+03 -0.57020566047E+03  0.60809469617E+03  0.83013286658E+02 0.  0.
        -11    1    5    5    0    0  0.10254778784E+02  0.71192759798E+00 -0.11763154740E+03  0.11807983855E+03  0.00000000000E+00 0.  1.
         12    1    5    5    0    0  0.12465740905E+03 -0.14054096638E+03 -0.45257411307E+03  0.49001485762E+03  0.00000000000E+00 0. -1.
        -13    1    3    3    0    0 -0.41401830480E+02  0.55000619868E+02 -0.28061885111E+02  0.74341436285E+02  0.00000000000E+00 0.  1.
         14    1    3    3    0    0  0.72604677717E+01 -0.23613205108E+02 -0.69522355366E+01  0.25663815513E+02  0.00000000000E+00 0. -1.
          5    1    4    4  501    0 -0.67468682299E+02  0.12557739224E+03 -0.26437767527E+02  0.14506119428E+03  0.47000000000E+01 0.  1.
         -5    1    4    4    0  501 -0.47311917878E+02  0.28844376823E+02 -0.10642203682E+03  0.12007562437E+03  0.47000000000E+01 0.  1.
          1    1    1    2  502    0 -0.48357811412E+02 -0.33785917669E+02 -0.30144593284E+03  0.30716382694E+03  0.00000000000E+00 0. -1.
          3    1    1    2  503    0  0.62367586461E+02 -0.12194227370E+02  0.24055111872E+02  0.67948976662E+02  0.00000000000E+00 0. -1.
<mgrwt>
<rscale>  0 0.60736217E+02</rscale>
<asrwt>0</asrwt>
<pdfrwt beam="2">  1        2 0.17381030E+00 0.58991238E+02</pdfrwt>
<pdfrwt beam="1">  1        4 0.24476408E-01 0.62532812E+02</pdfrwt>
<totfact> 0.17478144E+02</totfact>
</mgrwt>
</event>
<event>
13    1  0.1595792E-008  0.6084353E+02  0.7546771E-02  0.1573994E+00
          2   -1    0    0  502    0  0.00000000000E+00  0.00000000000E+00  0.37211938867E+03  0.37211938867E+03  0.00000000000E+00 0. -1.
          2   -1    0    0  503    0 -0.00000000000E+00 -0.00000000000E+00 -0.13569307999E+04  0.13569307999E+04  0.00000000000E+00 0. -1.
         24    2    1    2    0    0 -0.28130139582E+02 -0.25308700453E+02 -0.31010845865E+03  0.32371645284E+03  0.84813033428E+02 0.  0.
         25    2    1    2    0    0  0.10130607541E+03  0.32248202695E+02 -0.21622573287E+03  0.27144348285E+03  0.12500051734E+03 0.  0.
         24    2    1    2    0    0 -0.13748202892E+02 -0.13367298088E+02  0.10970014408E+03  0.13752452210E+03  0.80691851066E+02 0.  0.
        -11    1    3    3    0    0 -0.12677712035E+02  0.24282963950E+02 -0.20118731162E+03  0.20304364328E+03  0.00000000000E+00 0.  1.
         12    1    3    3    0    0 -0.15452427547E+02 -0.49591664403E+02 -0.10892114703E+03  0.12067280956E+03  0.00000000000E+00 0. -1.
        -13    1    5    5    0    0 -0.42437816730E+02 -0.24331670437E+01  0.93726382697E+02  0.10291512719E+03  0.00000000000E+00 0.  1.
         14    1    5    5    0    0  0.28689613838E+02 -0.10934131044E+02  0.15973761380E+02  0.34609394916E+02  0.00000000000E+00 0. -1.
          5    1    4    4  501    0  0.70885431681E+02 -0.45674210968E+01 -0.21157506701E+03  0.22323016091E+03  0.47000000000E+01 0. -1.
         -5    1    4    4    0  501  0.30420643732E+02  0.36815623791E+02 -0.46506658642E+01  0.48213321947E+02  0.47000000000E+01 0. -1.
          1    1    1    2  502    0 -0.31837214415E+01 -0.16846656317E+02  0.21256442718E+03  0.21325473409E+03  0.00000000000E+00 0. -1.
          1    1    1    2  503    0 -0.56244011498E+02  0.23274452163E+02 -0.78074179097E+03  0.78311099668E+03  0.00000000000E+00 0. -1.
<mgrwt>
<rscale>  0 0.32297883E+02</rscale>
<asrwt>0</asrwt>
<pdfrwt beam="1">  1        2 0.54723439E-01 0.17144851E+02</pdfrwt>
<pdfrwt beam="2">  1        2 0.19954865E+00 0.60843530E+02</pdfrwt>
<totfact> 0.27307692E+02</totfact>
</mgrwt>
</event>
<event>
13    1  0.1595792E-008  0.7006942E+02  0.7546771E-02  0.1416405E+00
          2   -1    0    0  502    0  0.00000000000E+00  0.00000000000E+00  0.33284438720E+04  0.33284438720E+04  0.00000000000E+00 0. -1.
          2   -1    0    0  503    0 -0.00000000000E+00 -0.00000000000E+00 -0.31693398115E+04  0.31693398115E+04  0.00000000000E+00 0. -1.
         24    2    1    2    0    0 -0.68710226879E+02  0.42274802896E+02 -0.12791505895E+04  0.12841964871E+04  0.80163161336E+02 0.  0.
         25    2    1    2    0    0  0.13760624385E+03 -0.23468617612E+03  0.54232666513E+03  0.61947993041E+03  0.12499637137E+03 0.  0.
         24    2    1    2    0    0 -0.96947653464E+02  0.20649382772E+03  0.88971520692E+03  0.92120437136E+03  0.70610169198E+02 0.  0.
        -11    1    5    5    0    0 -0.82994603876E+01  0.70123257940E+02  0.36833870291E+03  0.37504606705E+03  0.00000000000E+00 0.  1.
         12    1    5    5    0    0 -0.88648193076E+02  0.13637056978E+03  0.52137650400E+03  0.54615830431E+03  0.00000000000E+00 0. -1.
        -13    1    3    3    0    0 -0.86339430360E+02  0.32959311656E+02 -0.96556031488E+03  0.96997295588E+03  0.00000000000E+00 0.  1.
         14    1    3    3    0    0  0.17629203481E+02  0.93154912396E+01 -0.31359027467E+03  0.31422353120E+03  0.00000000000E+00 0. -1.
          5    1    4    4  501    0 -0.13502571528E+02 -0.62645984566E+02  0.17695482826E+03  0.18826029870E+03  0.47000000000E+01 0.  1.
         -5    1    4    4    0  501  0.15110881538E+03 -0.17204019156E+03  0.36537183687E+03  0.43121963171E+03  0.47000000000E+01 0.  1.
          1    1    1    2  502    0  0.70089951842E+02  0.26341857956E+00  0.18386209507E+04  0.18399564318E+04  0.00000000000E+00 0. -1.
          1    1    1    2  503    0 -0.42038315352E+02 -0.14345873074E+02 -0.18324081727E+04  0.18329464628E+04  0.00000000000E+00 0. -1.
<mgrwt>
<rscale>  0 0.55788843E+02</rscale>
<asrwt>0</asrwt>
<pdfrwt beam="1">  1        2 0.48947704E+00 0.70069420E+02</pdfrwt>
<pdfrwt beam="2">  1        2 0.46607938E+00 0.44418735E+02</pdfrwt>
<totfact> 0.85303914E-01</totfact>
</mgrwt>
</event>
<event>
13    1  0.1595792E-008  0.1080478E+03  0.7546771E-02  0.1317572E+00
          2   -1    0    0  503    0  0.00000000000E+00  0.00000000000E+00  0.26145454997E+04  0.26145454997E+04  0.00000000000E+00 0. -1.
          2   -1    0    0  502    0 -0.00000000000E+00 -0.00000000000E+00 -0.10296061540E+04  0.10296061540E+04  0.00000000000E+00 0. -1.
         24    2    1    2    0    0 -0.29098341443E+02 -0.10556628976E+02 -0.16682586078E+03  0.18872028161E+03  0.82621552730E+02 0.  0.
         25    2    1    2    0    0 -0.11627611993E+03  0.12421618666E+03  0.12530376429E+03  0.24551332932E+03  0.12500385767E+03 0.  0.
         24    2    1    2    0    0  0.11497143468E+02  0.40647744826E+02  0.37385697756E+02  0.97660940889E+02  0.79721675291E+02 0.  0.
        -11    1    3    3    0    0 -0.47906830718E+02  0.17786812771E+02 -0.12336304198E+03  0.13352855599E+03  0.00000000000E+00 0.  1.
         12    1    3    3    0    0  0.18808489275E+02 -0.28343441747E+02 -0.43462818800E+02  0.55191725620E+02  0.00000000000E+00 0. -1.
        -13    1    5    5    0    0  0.21879324195E+02 -0.18344654885E+02  0.32990819442E+01  0.28742218630E+02  0.00000000000E+00 0.  1.
         14    1    5    5    0    0 -0.10382180727E+02  0.58992399711E+02  0.34086615812E+02  0.68918722259E+02  0.00000000000E+00 0. -1.
          5    1    4    4  501    0 -0.14407916971E+02 -0.10813566460E+02 -0.16395539820E+02  0.24807761225E+02  0.47000000000E+01 0.  1.
         -5    1    4    4    0  501 -0.10186820296E+03  0.13502975312E+03  0.14169930411E+03  0.22070556809E+03  0.47000000000E+01 0.  1.
          1    1    1    2  502    0  0.96773869443E+02 -0.10021329096E+03 -0.75475713700E+03  0.76750649596E+03  0.00000000000E+00 0. -1.
          1    1    1    2  503    0  0.37103448461E+02 -0.54094011547E+02  0.23438328814E+04  0.23447506059E+04  0.00000000000E+00 0. -1.
<mgrwt>
<rscale>  0 0.84187284E+02</rscale>
<asrwt>0</asrwt>
<pdfrwt beam="1">  1        2 0.38449198E+00 0.65595945E+02</pdfrwt>
<pdfrwt beam="2">  1        2 0.15141267E+00 0.10804782E+03</pdfrwt>
<totfact> 0.21280447E+01</totfact>
</mgrwt>
</event>
<event>
13    1  0.1595792E-008  0.2105537E+03  0.7546771E-02  0.1287535E+00
         -1   -1    0    0    0  501 -0.00000000000E+00  0.00000000000E+00  0.57777877116E+03  0.57777877116E+03  0.00000000000E+00 0.  1.
          2   -1    0    0  503    0  0.00000000000E+00 -0.00000000000E+00 -0.64685220123E+03  0.64685220123E+03  0.00000000000E+00 0. -1.
         24    2    1    2    0    0 -0.26602861036E+02 -0.10251760599E+03 -0.17201851894E+02  0.13268841980E+03  0.78056013774E+02 0.  0.
         25    2    1    2    0    0 -0.42769201600E+02 -0.94562612658E+02  0.95410845911E+01  0.16274812452E+03  0.12499850967E+03 0.  0.
         24    2    1    2    0    0  0.46521033689E+02  0.29054327619E+02 -0.89607613697E+02  0.13257091916E+03  0.80852728123E+02 0.  0.
        -11    1    5    5    0    0  0.48275078978E+02 -0.14185365367E+02 -0.66870397236E+02  0.83686067344E+02  0.00000000000E+00 0.  1.
         12    1    5    5    0    0 -0.17540452899E+01  0.43239692986E+02 -0.22737216462E+02  0.48884851814E+02  0.00000000000E+00 0. -1.
        -13    1    3    3    0    0  0.18097175142E+02 -0.11294691959E+02  0.15048313338E+02  0.26106120909E+02  0.00000000000E+00 0.  1.
         14    1    3    3    0    0 -0.44700036178E+02 -0.91222914035E+02 -0.32250165232E+02  0.10658229889E+03  0.00000000000E+00 0. -1.
          5    1    4    4  502    0  0.43309627524E+01  0.28366822480E+02 -0.72134969799E+01  0.29959278941E+02  0.47000000000E+01 0.  1.
         -5    1    4    4    0  502 -0.47100164353E+02 -0.12292943514E+03  0.16754581571E+02  0.13278884557E+03  0.47000000000E+01 0.  1.
          1    1    1    2  503    0  0.85886318347E+01 -0.43511865155E+02 -0.35549554057E+03  0.35825148481E+03  0.00000000000E+00 0. -1.
         -2    1    1    2    0  501  0.14262397113E+02  0.21153775619E+03  0.38369049149E+03  0.43837202412E+03  0.00000000000E+00 0.  1.
<mgrwt>
<rscale>  0 0.96635159E+02</rscale>
<asrwt>0</asrwt>
<pdfrwt beam="2">  1        2 0.95125323E-01 0.44351404E+02</pdfrwt>
<pdfrwt beam="1">  1       -1 0.84967467E-01 0.21055374E+03</pdfrwt>
<totfact> 0.85004161E+01</totfact>
</mgrwt>
</event>
<event>
13    1  0.1595792E-008  0.1665035E+03  0.7546771E-02  0.1270238E+00
          2   -1    0    0  503    0  0.00000000000E+00  0.00000000000E+00  0.13068973342E+04  0.13068973342E+04  0.00000000000E+00 0. -1.
          2   -1    0    0  502    0 -0.00000000000E+00 -0.00000000000E+00 -0.19034874130E+04  0.19034874130E+04  0.00000000000E+00 0. -1.
         24    2    1    2    0    0  0.86298912364E+02  0.12485491791E+03 -0.20846576099E+03  0.26822653356E+03  0.73832560562E+02 0.  0.
         25    2    1    2    0    0  0.30448494682E+02  0.43421182785E+02 -0.96438462973E+02  0.16654970075E+03  0.12500366290E+03 0.  0.
         24    2    1    2    0    0 -0.94385853281E+02 -0.33517635564E+01  0.20812813639E+03  0.24347765801E+03  0.83929286751E+02 0.  0.
        -11    1    3    3    0    0  0.32437136553E+02  0.20631241676E+02 -0.13613063520E+02  0.40781508791E+02  0.00000000000E+00 0.  1.
         12    1    3    3    0    0  0.53861775811E+02  0.10422367623E+03 -0.19485269747E+03  0.22744502477E+03  0.00000000000E+00 0. -1.
        -13    1    5    5    0    0  0.10016429865E+02 -0.15883031277E+02  0.16981601648E+02  0.25317471128E+02  0.00000000000E+00 0.  1.
         14    1    5    5    0    0 -0.10440228315E+03  0.12531267720E+02  0.19114653474E+03  0.21816018688E+03  0.00000000000E+00 0. -1.
          5    1    4    4  501    0 -0.22560858767E+02 -0.17935323408E+02  0.11570183059E+02  0.31410624159E+02  0.47000000000E+01 0.  1.
         -5    1    4    4    0  501  0.53009353449E+02  0.61356506193E+02 -0.10800864603E+03  0.13513907659E+03  0.47000000000E+01 0.  1.
          1    1    1    2  502    0  0.61881541435E+02 -0.23346790057E+02 -0.15085657004E+04  0.15100148576E+04  0.00000000000E+00 0. -1.
          1    1    1    2  503    0 -0.84243095200E+02 -0.14157754708E+03  0.10087517092E+04  0.10221159972E+04  0.00000000000E+00 0. -1.
<mgrwt>
<rscale>  0 0.10494004E+03</rscale>
<asrwt>0</asrwt>
<pdfrwt beam="1">  1        2 0.19219079E+00 0.16650349E+03</pdfrwt>
<pdfrwt beam="2">  1        2 0.27992462E+00 0.66139230E+02</pdfrwt>
<totfact> 0.32101831E+01</totfact>
</mgrwt>
</event>
<event>
13    1  0.1595792E-008  0.1161276E+03  0.7546771E-02  0.1462411E+00
         -3   -1    0    0    0  501 -0.00000000000E+00  0.00000000000E+00  0.73721844586E+03  0.73721844586E+03  0.00000000000E+00 0.  1.
          2   -1    0    0  503    0  0.00000000000E+00 -0.00000000000E+00 -0.19652657050E+04  0.19652657050E+04  0.00000000000E+00 0. -1.
         24    2    1    2    0    0  0.14335506564E+03  0.13988107056E+03 -0.19550135796E+03  0.28879343950E+03  0.71158140720E+02 0.  0.
         25    2    1    2    0    0 -0.59709778842E+02 -0.37514378939E+02 -0.66127062045E+02  0.15801999070E+03  0.12499977123E+03 0.  0.
         24    2    1    2    0    0  0.62535328411E+01 -0.63218649661E+02 -0.15098668005E+03  0.18114186815E+03  0.77328484443E+02 0.  0.
        -11    1    3    3    0    0  0.32705909670E+01  0.22934030828E+02 -0.51036663825E+02  0.56048261255E+02  0.00000000000E+00 0.  1.
         12    1    3    3    0    0  0.14008447468E+03  0.11694703973E+03 -0.14446469413E+03  0.23274517825E+03  0.00000000000E+00 0. -1.
        -13    1    5    5    0    0  0.10972354824E+02 -0.80941662492E+02 -0.12093470837E+03  0.14593542745E+03  0.00000000000E+00 0.  1.
         14    1    5    5    0    0 -0.47188219826E+01  0.17723012831E+02 -0.30051971680E+02  0.35206440697E+02  0.00000000000E+00 0. -1.
          5    1    4    4  502    0 -0.97225943676E+02 -0.14556501653E+02 -0.37461750728E+02  0.10531024941E+03  0.47000000000E+01 0. -1.
         -5    1    4    4    0  502  0.37516164833E+02 -0.22957877286E+02 -0.28665311317E+02  0.52709741283E+02  0.47000000000E+01 0. -1.
          1    1    1    2  503    0  0.13696417496E+02  0.13164308402E+02 -0.14395688034E+04  0.14396941448E+04  0.00000000000E+00 0. -1.
         -4    1    1    2    0  501 -0.10359523714E+03 -0.52312350363E+02  0.62413664438E+03  0.63483470763E+03  0.00000000000E+00 0.  1.
<mgrwt>
<rscale>  0 0.46969036E+02</rscale>
<asrwt>0</asrwt>
<pdfrwt beam="2">  1        2 0.28900966E+00 0.18997128E+02</pdfrwt>
<pdfrwt beam="1">  1       -3 0.10841448E+00 0.11612757E+03</pdfrwt>
<totfact> 0.53100542E+00</totfact>
</mgrwt>
</event>
<event>
13    1  0.1595792E-008  0.5111068E+02  0.7546771E-02  0.1520664E+00
          2   -1    0    0  502    0  0.00000000000E+00  0.00000000000E+00  0.32092080338E+04  0.32092080338E+04  0.00000000000E+00 0. -1.
          2   -1    0    0  503    0 -0.00000000000E+00 -0.00000000000E+00 -0.23440058537E+04  0.23440058537E+04  0.00000000000E+00 0. -1.
         24    2    1    2    0    0 -0.23315781064E+03  0.34372748929E+03 -0.69583184200E+03  0.81447404622E+03  0.81699865764E+02 0.  0.
         25    2    1    2    0    0  0.11141282648E+03  0.18004787800E+03  0.94649172351E+02  0.26346496617E+03  0.12500106519E+03 0.  0.
         24    2    1    2    0    0  0.14366865816E+03 -0.51782449724E+03  0.22487051734E+04  0.23140994338E+04  0.97971114082E+02 0.  0.
        -11    1    3    3    0    0 -0.43835303198E+02  0.12448766539E+03 -0.18544855806E+03  0.22761783833E+03  0.00000000000E+00 0.  1.
         12    1    3    3    0    0 -0.18932250744E+03  0.21923982390E+03 -0.51038328395E+03  0.58685620789E+03  0.00000000000E+00 0. -1.
        -13    1    5    5    0    0  0.13785249613E+03 -0.34149489398E+03  0.15996219425E+04  0.16414665492E+04  0.00000000000E+00 0.  1.
         14    1    5    5    0    0  0.58161620307E+01 -0.17632960326E+03  0.64908323093E+03  0.67263288456E+03  0.00000000000E+00 0. -1.
          5    1    4    4  501    0  0.10253920481E+03  0.15731901555E+03  0.12394444913E+03  0.22505083347E+03  0.47000000000E+01 0.  1.
         -5    1    4    4    0  501  0.88736216686E+01  0.22728862444E+02 -0.29295276776E+02  0.38414132698E+02  0.47000000000E+01 0.  1.
          1    1    1    2  502    0  0.25093697573E+02  0.14103635198E+02  0.68868297688E+03  0.68928430188E+03  0.00000000000E+00 0. -1.
          1    1    1    2  503    0 -0.47017371569E+02 -0.20054505251E+02 -0.14710033005E+04  0.14718911395E+04  0.00000000000E+00 0. -1.
<mgrwt>
<rscale>  0 0.38356843E+02</rscale>
<asrwt>0</asrwt>
<pdfrwt beam="1">  1        2 0.47194235E+00 0.28785520E+02</pdfrwt>
<pdfrwt beam="2">  1        2 0.34470675E+00 0.51110676E+02</pdfrwt>
<totfact> 0.29496930E+00</totfact>
</mgrwt>
</event>
<event>
13    1  0.1595792E-008  0.5487569E+02  0.7546771E-02  0.1442933E+00
          2   -1    0    0  503    0  0.00000000000E+00  0.00000000000E+00  0.31369450278E+04  0.31369450278E+04  0.00000000000E+00 0. -1.
          2   -1    0    0  502    0 -0.00000000000E+00 -0.00000000000E+00 -0.16587222159E+04  0.16587222159E+04  0.00000000000E+00 0. -1.
         24    2    1    2    0    0 -0.34685795646E+02  0.38025610515E+02 -0.42376389924E+03  0.43435765117E+03  0.80260048322E+02 0.  0.
         25    2    1    2    0    0  0.44583302576E+02  0.23842394693E+02  0.32100634540E+03  0.34817614498E+03  0.12500169397E+03 0.  0.
         24    2    1    2    0    0 -0.10048726883E+02 -0.53159978487E+02  0.68273601659E+03  0.68929060104E+03  0.77885198266E+02 0.  0.
        -11    1    5    5    0    0  0.30702116929E+02 -0.77744874228E+01  0.16858500790E+03  0.17153415848E+03  0.00000000000E+00 0.  1.
         12    1    5    5    0    0 -0.40750843812E+02 -0.45385491064E+02  0.51415100869E+03  0.51775644256E+03  0.00000000000E+00 0. -1.
        -11    1    3    3    0    0  0.19103862214E+01 -0.80632469779E+01 -0.20222501432E+01  0.85296555020E+01  0.00000000000E+00 0.  1.
         12    1    3    3    0    0 -0.36596181867E+02  0.46088857493E+02 -0.42174164910E+03  0.42582799567E+03  0.00000000000E+00 0. -1.
          5    1    4    4  501    0  0.26997824689E+02  0.74152187311E+02  0.22172908258E+03  0.23540030901E+03  0.47000000000E+01 0. -1.
         -5    1    4    4    0  501  0.17585477887E+02 -0.50309792618E+02  0.99277262813E+02  0.11277583596E+03  0.47000000000E+01 0. -1.
          1    1    1    2  502    0 -0.10891405786E+02  0.45082998190E+02 -0.12119985269E+04  0.12128856206E+04  0.00000000000E+00 0. -1.
          1    1    1    2  503    0  0.11042625739E+02 -0.53791024911E+02  0.21102428761E+04  0.21109572260E+04  0.00000000000E+00 0. -1.
<mgrwt>
<rscale>  0 0.50449296E+02</rscale>
<asrwt>0</asrwt>
<pdfrwt beam="1">  1        2 0.46131544E+00 0.54875687E+02</pdfrwt>
<pdfrwt beam="2">  1        2 0.24392974E+00 0.46379947E+02</pdfrwt>
<totfact> 0.60298201E+00</totfact>
</mgrwt>
</event>
<event>
13    1  0.1595792E-008  0.4578791E+02  0.7546771E-02  0.1568325E+00
          2   -1    0    0  502    0  0.00000000000E+00  0.00000000000E+00  0.20463955640E+04  0.20463955640E+04  0.00000000000E+00 0. -1.
          2   -1    0    0  503    0 -0.00000000000E+00 -0.00000000000E+00 -0.12995030029E+04  0.12995030029E+04  0.00000000000E+00 0. -1.
         24    2    1    2    0    0 -0.10951973268E+02 -0.57013608968E+02 -0.48122243982E+03  0.49125275911E+03  0.79898306747E+02 0.  0.
         25    2    1    2    0    0 -0.21836994180E+03 -0.61826824025E+02 -0.81664109406E+02  0.27166189819E+03  0.12499268984E+03 0.  0.
         24    2    1    2    0    0  0.17808040028E+03  0.11625445887E+03  0.10314485619E+04  0.10571484707E+04  0.91918578758E+02 0.  0.
        -11    1    3    3    0    0  0.17696768855E+02 -0.31830366617E+02 -0.39848825761E+03  0.40014902139E+03  0.00000000000E+00 0.  1.
         12    1    3    3    0    0 -0.28648742123E+02 -0.25183242352E+02 -0.82734182213E+02  0.91103737723E+02  0.00000000000E+00 0. -1.
        -13    1    5    5    0    0  0.16966281518E+03  0.12749309915E+03  0.88772941491E+03  0.91274502205E+03  0.00000000000E+00 0.  1.
         14    1    5    5    0    0  0.84175851061E+01 -0.11238640283E+02  0.14371914702E+03  0.14440344869E+03  0.00000000000E+00 0. -1.
          5    1    4    4  501    0 -0.11784876294E+03 -0.94601313244E+02 -0.64788342449E+02  0.16449121165E+03  0.47000000000E+01 0.  1.
         -5    1    4    4    0  501 -0.10052117886E+03  0.32774489219E+02 -0.16875766957E+02  0.10717068654E+03  0.47000000000E+01 0.  1.
          1    1    1    2  502    0  0.11699309342E+02 -0.20500002232E+02  0.90108794547E+03  0.90139703206E+03  0.00000000000E+00 0. -1.
          1    1    1    2  503    0  0.39542205439E+02  0.23085976358E+02 -0.62275739702E+03  0.62443840678E+03  0.00000000000E+00 0. -1.
<mgrwt>
<rscale>  0 0.32874820E+02</rscale>
<asrwt>0</asrwt>
<pdfrwt beam="1">  1        2 0.30094053E+00 0.23603473E+02</pdfrwt>
<pdfrwt beam="2">  1        2 0.19110338E+00 0.45787913E+02</pdfrwt>
<totfact> 0.34180748E+01</totfact>
</mgrwt>
</event>
<event>
13    1  0.1595792E-008  0.9957998E+02  0.7546771E-02  0.1415882E+00
          2   -1    0    0  502    0  0.00000000000E+00  0.00000000000E+00  0.81568101913E+03  0.81568101913E+03  0.00000000000E+00 0. -1.
          2   -1    0    0  503    0 -0.00000000000E+00 -0.00000000000E+00 -0.42767252218E+04  0.42767252218E+04  0.00000000000E+00 0. -1.
         24    2    1    2    0    0 -0.63065909293E+02 -0.83814649561E+02 -0.10915741112E+04  0.10995970547E+04  0.81101406841E+02 0.  0.
         25    2    1    2    0    0  0.16106343959E+03  0.29210150526E+02 -0.94310713928E+02  0.22652718781E+03  0.12500156635E+03 0.  0.
         24    2    1    2    0    0 -0.18044651394E+02  0.72460589656E+02  0.30922591233E+03  0.32796621133E+03  0.79781103128E+02 0.  0.
        -11    1    3    3    0    0 -0.16164553514E+02 -0.84107387720E+02 -0.69241899372E+03  0.69769578494E+03  0.00000000000E+00 0.  1.
         12    1    3    3    0    0 -0.46901355779E+02  0.29273815881E+00 -0.39915511744E+03  0.40190126978E+03  0.00000000000E+00 0. -1.
        -13    1    5    5    0    0 -0.37090254367E+02  0.31061215163E+01  0.97888179272E+02  0.10472550120E+03  0.00000000000E+00 0.  1.
         14    1    5    5    0    0  0.19045602972E+02  0.69354468140E+02  0.21133773306E+03  0.22324071013E+03  0.00000000000E+00 0. -1.
          5    1    4    4  501    0  0.12279314627E+03  0.15036102269E+02 -0.15479766977E+00  0.12379965712E+03  0.47000000000E+01 0. -1.
         -5    1    4    4    0  501  0.38270293324E+02  0.14174048257E+02 -0.94155916258E+02  0.10272753069E+03  0.47000000000E+01 0. -1.
          1    1    1    2  502    0  0.71128470656E+01  0.30565078452E+02  0.42556336781E+03  0.42671887307E+03  0.00000000000E+00 0. -1.
          1    1    1    2  503    0 -0.87065725970E+02 -0.48421169073E+02 -0.30099486577E+04  0.30115969140E+04  0.00000000000E+00 0. -1.
<mgrwt>
<rscale>  0 0.55901679E+02</rscale>
<asrwt>0</asrwt>
<pdfrwt beam="1">  1        2 0.11995309E+00 0.31381788E+02</pdfrwt>
<pdfrwt beam="2">  1        2 0.62893019E+00 0.99579978E+02</pdfrwt>
<totfact> 0.29230085E+00</totfact>
</mgrwt>
</event>
<event>
13    1  0.1595792E-008  0.3198702E+02  0.7546771E-02  0.1767934E+00
          4   -1    0    0  503    0 -0.00000000000E+00  0.00000000000E+00  0.63651704830E+03  0.63651704830E+03  0.00000000000E+00 0. -1.
          2   -1    0    0  502    0  0.00000000000E+00 -0.00000000000E+00 -0.12291107916E+04  0.12291107916E+04  0.00000000000E+00 0. -1.
         24    2    1    2    0    0 -0.17401646137E+02 -0.35244665218E+02 -0.11653958959E+03  0.14736393436E+03  0.81176656089E+02 0.  0.
         25    2    1    2    0    0 -0.19911689945E+02 -0.59518632856E+02 -0.33576049106E+03  0.36372942636E+03  0.12500018075E+03 0.  0.
         24    2    1    2    0    0  0.32728045456E+02  0.11737950820E+03 -0.48240539978E+03  0.50496550472E+03  0.86174922796E+02 0.  0.
        -11    1    5    5    0    0  0.22858452658E+02  0.11739005138E+03 -0.48017852027E+03  0.49484779918E+03  0.00000000000E+00 0.  1.
         12    1    5    5    0    0  0.98695927977E+01 -0.10543187476E-01 -0.22268795100E+01  0.10117705545E+02  0.00000000000E+00 0. -1.
        -11    1    3    3    0    0 -0.29842518659E+02  0.15686964688E+02 -0.68075478898E+02  0.75966621671E+02  0.00000000000E+00 0.  1.
         12    1    3    3    0    0  0.12440872522E+02 -0.50931629906E+02 -0.48464110693E+02  0.71397312690E+02  0.00000000000E+00 0. -1.
          5    1    4    4  501    0  0.20991160094E+02 -0.84477110479E+02 -0.25739011727E+03  0.27175130812E+03  0.47000000000E+01 0.  1.
         -5    1    4    4    0  501 -0.40902850039E+02  0.24958477623E+02 -0.78370373793E+02  0.91978118240E+02  0.47000000000E+01 0.  1.
          1    1    1    2  502    0  0.61458464084E+01  0.93369608200E+01 -0.25317579645E+03  0.25342244212E+03  0.00000000000E+00 0. -1.
          3    1    1    2  503    0 -0.15605557816E+01 -0.31953170943E+02  0.59528753355E+03  0.59614653238E+03  0.00000000000E+00 0. -1.
<mgrwt>
<rscale>  0 0.18909114E+02</rscale>
<asrwt>0</asrwt>
<pdfrwt beam="2">  1        2 0.18075158E+00 0.11178115E+02</pdfrwt>
<pdfrwt beam="1">  1        4 0.93605450E-01 0.31987020E+02</pdfrwt>
<totfact> 0.12033998E+01</totfact>
</mgrwt>
</event>
<event>
13    1  0.1595792E-008  0.1072254E+03  0.7546771E-02  0.1385709E+00
          2   -1    0    0  503    0  0.00000000000E+00  0.00000000000E+00  0.79798343444E+03  0.79798343444E+03  0.00000000000E+00 0. -1.
          2   -1    0    0  502    0 -0.00000000000E+00 -0.00000000000E+00 -0.10483417698E+04  0.10483417698E+04  0.00000000000E+00 0. -1.
         24    2    1    2    0    0  0.15692766930E+03 -0.21970437112E+02 -0.19183687031E+03  0.26178558493E+03  0.81371457932E+02 0.  0.
         25    2    1    2    0    0 -0.16441101053E+03  0.13183018186E+03 -0.21183726245E+03  0.32389727048E+03  0.12499695528E+03 0.  0.
         24    2    1    2    0    0 -0.55398537304E+02  0.26636205245E+02  0.14772955371E+03  0.18306413985E+03  0.88938028401E+02 0.  0.
        -13    1    5    5    0    0 -0.30118424386E+02  0.54741010949E+02  0.56203066641E+02  0.84038577255E+02  0.00000000000E+00 0.  1.
         14    1    5    5    0    0 -0.25280112918E+02 -0.28104805704E+02  0.91526487067E+02  0.99025562597E+02  0.00000000000E+00 0. -1.
        -13    1    3    3    0    0  0.10828170674E+03  0.82407168109E+00 -0.17444117522E+03  0.20531763373E+03  0.00000000000E+00 0.  1.
         14    1    3    3    0    0  0.48645962558E+02 -0.22794508793E+02 -0.17395695090E+02  0.56467951194E+02  0.00000000000E+00 0. -1.
          5    1    4    4  501    0 -0.27619424093E+02  0.43588796628E+02  0.57306335396E+01  0.52132004944E+02  0.47000000000E+01 0.  1.
         -5    1    4    4    0  501 -0.13679158643E+03  0.88241385234E+02 -0.21756789599E+03  0.27176526554E+03  0.47000000000E+01 0.  1.
          1    1    1    2  502    0  0.35952672505E+02 -0.87404634313E+01 -0.52746959400E+03  0.52876569759E+03  0.00000000000E+00 0. -1.
          1    1    1    2  503    0  0.26929206031E+02 -0.12775548656E+03  0.53305583773E+03  0.54881251136E+03  0.00000000000E+00 0. -1.
<mgrwt>
<rscale>  0 0.62986704E+02</rscale>
<asrwt>0</asrwt>
<pdfrwt beam="1">  1        2 0.11735050E+00 0.10722537E+03</pdfrwt>
<pdfrwt beam="2">  1        2 0.15416791E+00 0.36999870E+02</pdfrwt>
<totfact> 0.17614378E+02</totfact>
</mgrwt>
</event>
<event>
13    1  0.1595792E-008  0.9754493E+02  0.7546771E-02  0.1331375E+00
          2   -1    0    0  503    0  0.00000000000E+00  0.00000000000E+00  0.33489834137E+04  0.33489834137E+04  0.00000000000E+00 0. -1.
          2   -1    0    0  502    0 -0.00000000000E+00 -0.00000000000E+00 -0.22240842072E+03  0.22240842072E+03  0.00000000000E+00 0. -1.
         24    2    1    2    0    0  0.18119801526E+01  0.28361437746E+02  0.98798409875E+01  0.86280705872E+02  0.80864667963E+02 0.  0.
         25    2    1    2    0    0  0.17281267044E+03 -0.57072349307E+02  0.14871767594E+04  0.15034763457E+04  0.12499974516E+03 0.  0.
         24    2    1    2    0    0 -0.15873836367E+02  0.42514746955E+01  0.59667826435E+03  0.60235009343E+03  0.80812314551E+02 0.  0.
        -11    1    5    5    0    0 -0.25890424347E+02  0.30653974937E+02  0.16730524998E+03  0.17204948975E+03  0.00000000000E+00 0.  1.
         12    1    5    5    0    0  0.10016587980E+02 -0.26402500242E+02  0.42937301438E+03  0.43030060368E+03  0.00000000000E+00 0. -1.
        -13    1    3    3    0    0  0.24761146654E+02  0.40957614234E+01  0.35997120882E+02  0.43882597428E+02  0.00000000000E+00 0.  1.
         14    1    3    3    0    0 -0.22949166502E+02  0.24265676323E+02 -0.26117279894E+02  0.42398108444E+02  0.00000000000E+00 0. -1.
          5    1    4    4  501    0 -0.11267973105E+02 -0.11050393308E+02  0.36421046382E+03  0.36458254259E+03  0.47000000000E+01 0. -1.
         -5    1    4    4    0  501  0.18408064354E+03 -0.46021955999E+02  0.11229662956E+04  0.11388938031E+04  0.47000000000E+01 0. -1.
          1    1    1    2  502    0 -0.94626326593E+02  0.28980029662E+02 -0.15814940361E+03  0.18656156535E+03  0.00000000000E+00 0. -1.
          1    1    1    2  503    0 -0.64124487629E+02 -0.45205927968E+01  0.11909895319E+04  0.11927231241E+04  0.00000000000E+00 0. -1.
<mgrwt>
<rscale>  0 0.79186757E+02</rscale>
<asrwt>0</asrwt>
<pdfrwt beam="1">  1        2 0.49249753E+00 0.64283635E+02</pdfrwt>
<pdfrwt beam="2">  1        2 0.32707123E-01 0.97544928E+02</pdfrwt>
<totfact> 0.48758751E+01</totfact>
</mgrwt>
</event>
<event>
13    1  0.1595792E-008  0.5711634E+02  0.7546771E-02  0.1426318E+00
          2   -1    0    0  502    0  0.00000000000E+00  0.00000000000E+00  0.20241867452E+04  0.20241867452E+04  0.00000000000E+00 0. -1.
          2   -1    0    0  503    0 -0.00000000000E+00 -0.00000000000E+00 -0.68160439300E+03  0.68160439300E+03  0.00000000000E+00 0. -1.
         24    2    1    2    0    0 -0.11774956882E+02  0.15254395576E+02 -0.30343388919E+02  0.88471588631E+02  0.80840302757E+02 0.  0.
         25    2    1    2    0    0  0.56552745296E+02 -0.26632437160E+02  0.10250791285E+03  0.17332871064E+03  0.12500987972E+03 0.  0.
         24    2    1    2    0    0  0.33838343698E+02 -0.32576238621E+02  0.11869818758E+04  0.11907361415E+04  0.81977681579E+02 0.  0.
        -11    1    5    5    0    0 -0.20727616061E+02 -0.26856341970E+02  0.66832038298E+03  0.66918086604E+03  0.00000000000E+00 0.  1.
         12    1    5    5    0    0  0.54565959759E+02 -0.57198966511E+01  0.51866149283E+03  0.52155527543E+03  0.00000000000E+00 0. -1.
        -11    1    3    3    0    0  0.23623713033E+02 -0.47878127553E+01  0.14338414351E+02  0.28046267034E+02  0.00000000000E+00 0.  1.
         12    1    3    3    0    0 -0.35398669916E+02  0.20042208332E+02 -0.44681803270E+02  0.60425321597E+02  0.00000000000E+00 0. -1.
          5    1    4    4  501    0  0.84630452150E+02  0.14900585239E+02  0.45789059075E+02  0.97483684801E+02  0.47000000000E+01 0.  1.
         -5    1    4    4    0  501 -0.28077706853E+02 -0.41533022399E+02  0.56718853773E+02  0.75845025843E+02  0.47000000000E+01 0.  1.
          1    1    1    2  502    0 -0.28395870406E+02  0.49261988713E+02  0.66604170972E+03  0.66846438056E+03  0.00000000000E+00 0. -1.
          1    1    1    2  503    0 -0.50220261706E+02 -0.53077085087E+01 -0.58260575722E+03  0.58479031695E+03  0.00000000000E+00 0. -1.
<mgrwt>
<rscale>  0 0.53706362E+02</rscale>
<asrwt>0</asrwt>
<pdfrwt beam="1">  1        2 0.29767452E+00 0.57116343E+02</pdfrwt>
<pdfrwt beam="2">  1        2 0.10023594E+00 0.50499965E+02</pdfrwt>
<totfact> 0.70612750E+01</totfact>
</mgrwt>
</event>
<event>
13    1  0.1595792E-008  0.1261160E+03  0.7546771E-02  0.1359021E+00
          2   -1    0    0  502    0  0.00000000000E+00  0.00000000000E+00  0.11912766675E+04  0.11912766675E+04  0.00000000000E+00 0. -1.
          2   -1    0    0  503    0 -0.00000000000E+00 -0.00000000000E+00 -0.13708630815E+04  0.13708630815E+04  0.00000000000E+00 0. -1.
         24    2    1    2    0    0  0.17058578747E+02  0.10340703931E+03 -0.33939720885E+03  0.36422515047E+03  0.80532502583E+02 0.  0.
         25    2    1    2    0    0  0.17634520171E+03 -0.80920811202E+02 -0.36563490032E+02  0.23368262578E+03  0.12499949175E+03 0.  0.
         24    2    1    2    0    0 -0.47620620095E+02  0.64600108228E+02  0.18453634553E+03  0.21678111777E+03  0.80619431656E+02 0.  0.
        -11    1    5    5    0    0 -0.64929644412E+01 -0.17496418941E+02  0.54395692696E+02  0.57508039846E+02  0.00000000000E+00 0.  1.
         12    1    5    5    0    0 -0.41127655654E+02  0.82096527169E+02  0.13014065283E+03  0.15927307793E+03  0.00000000000E+00 0. -1.
        -13    1    3    3    0    0  0.16474502441E+02 -0.94479493834E+01 -0.58455304476E+02  0.61462961201E+02  0.00000000000E+00 0.  1.
         14    1    3    3    0    0  0.58407630583E+00  0.11285498869E+03 -0.28094190437E+03  0.30276218926E+03  0.00000000000E+00 0. -1.
          5    1    4    4  501    0  0.15674370386E+03 -0.10985661516E+03 -0.46526415075E+02  0.19703771694E+03  0.47000000000E+01 0.  1.
         -5    1    4    4    0  501  0.19601497845E+02  0.28935803963E+02  0.99629250432E+01  0.36644908843E+02  0.47000000000E+01 0.  1.
          1    1    1    2  502    0 -0.28547852692E+02  0.26870738951E+02  0.87149925051E+03  0.87238062802E+03  0.00000000000E+00 0. -1.
          1    1    1    2  503    0 -0.11723530767E+03 -0.11395707528E+03 -0.85966131113E+03  0.87507022702E+03  0.00000000000E+00 0. -1.
<mgrwt>
<rscale>  0 0.70316095E+02</rscale>
<asrwt>0</asrwt>
<pdfrwt beam="1">  1        2 0.17518775E+00 0.39204802E+02</pdfrwt>
<pdfrwt beam="2">  1        2 0.20159751E+00 0.12611601E+03</pdfrwt>
<totfact> 0.69510377E+01</totfact>
</mgrwt>
</event>
<event>
13    1  0.1595792E-008  0.1663225E+03  0.7546771E-02  0.1228209E+00
          2   -1    0    0  503    0  0.00000000000E+00  0.00000000000E+00  0.24505830800E+04  0.24505830800E+04  0.00000000000E+00 0. -1.
          2   -1    0    0  502    0 -0.00000000000E+00 -0.00000000000E+00 -0.28882873817E+04  0.28882873817E+04  0.00000000000E+00 0. -1.
         24    2    1    2    0    0  0.12204009875E+03 -0.99934295553E+02 -0.90325436724E+03  0.92041604277E+03  0.80103624843E+02 0.  0.
         25    2    1    2    0    0 -0.41604441505E+02 -0.94771794068E+02  0.40658778383E+03  0.43777807441E+03  0.12499357570E+03 0.  0.
         24    2    1    2    0    0 -0.74173311809E+01  0.28424144896E+02  0.45074626797E+03  0.45888763601E+03  0.80887054432E+02 0.  0.
        -11    1    3    3    0    0  0.24856807645E+02  0.82667894804E+01 -0.23871503461E+03  0.24014801362E+03  0.00000000000E+00 0.  1.
         12    1    3    3    0    0  0.97183291109E+02 -0.10820108503E+03 -0.66453933263E+03  0.68026802915E+03  0.00000000000E+00 0. -1.
        -13    1    5    5    0    0 -0.13187538427E+02  0.32713929825E+02  0.45030468911E+03  0.45168398844E+03  0.00000000000E+00 0.  1.
         14    1    5    5    0    0  0.57702072458E+01 -0.42897849295E+01  0.44157885852E+00  0.72036475683E+01  0.00000000000E+00 0. -1.
          5    1    4    4  501    0  0.30270718635E+02 -0.32705898172E+01  0.18407878579E+03  0.18663896308E+03  0.47000000000E+01 0.  1.
         -5    1    4    4    0  501 -0.71875160140E+02 -0.91501204251E+02  0.22250899805E+03  0.25113911132E+03  0.47000000000E+01 0.  1.
          1    1    1    2  502    0 -0.14451236134E+03  0.90355691680E+02 -0.19513303160E+04  0.19587592950E+04  0.00000000000E+00 0. -1.
          1    1    1    2  503    0  0.71494035268E+02  0.75926253046E+02  0.15595463298E+04  0.15630294136E+04  0.00000000000E+00 0. -1.
<mgrwt>
<rscale>  0 0.12949340E+03</rscale>
<asrwt>0</asrwt>
<pdfrwt beam="1">  1        2 0.36037987E+00 0.10081942E+03</pdfrwt>
<pdfrwt beam="2">  1        2 0.42474814E+00 0.16632253E+03</pdfrwt>
<totfact> 0.26506451E+00</totfact>
</mgrwt>
</event>
<event>
13    1  0.1595792E-008  0.1585556E+03  0.7546771E-02  0.1223060E+00
          2   -1    0    0  502    0  0.00000000000E+00  0.00000000000E+00  0.20928468489E+04  0.20928468489E+04  0.00000000000E+00 0. -1.
          2   -1    0    0  503    0 -0.00000000000E+00 -0.00000000000E+00 -0.11547108953E+04  0.11547108953E+04  0.00000000000E+00 0. -1.
         24    2    1    2    0    0  0.90100512123E+02  0.20631437862E+02 -0.22099191644E+02  0.12496667599E+03  0.81145162052E+02 0.  0.
         25    2    1    2    0    0 -0.81588794478E+02 -0.26874170884E+03  0.25781484280E+03  0.40121316363E+03  0.12499868819E+03 0.  0.
         24    2    1    2    0    0 -0.77907662635E+02  0.50108302512E+02  0.50496606947E+03  0.51963086148E+03  0.80281099894E+02 0.  0.
        -13    1    3    3    0    0  0.59683695609E+02 -0.25804849222E+02  0.51601318142E+00  0.65025379925E+02  0.00000000000E+00 0.  1.
         14    1    3    3    0    0  0.30416816514E+02  0.46436287084E+02 -0.22615204826E+02  0.59941296068E+02  0.00000000000E+00 0. -1.
        -13    1    5    5    0    0 -0.84676047531E+02  0.14992478553E+02  0.32782935970E+03  0.33892019196E+03  0.00000000000E+00 0.  1.
         14    1    5    5    0    0  0.67683848954E+01  0.35115823959E+02  0.17713670977E+03  0.18071066951E+03  0.00000000000E+00 0. -1.
          5    1    4    4  501    0  0.28031972704E+02 -0.57659222616E+02  0.87765088378E+02  0.10878960513E+03  0.47000000000E+01 0.  1.
         -5    1    4    4    0  501 -0.10962076718E+03 -0.21108248622E+03  0.17004975442E+03  0.29242355850E+03  0.47000000000E+01 0.  1.
          1    1    1    2  502    0 -0.31352147052E+02  0.15005444263E+03  0.11915696369E+04  0.12013898171E+04  0.00000000000E+00 0. -1.
          1    1    1    2  503    0  0.10074809204E+03  0.47947525828E+02 -0.99411540396E+03  0.10003572260E+04  0.00000000000E+00 0. -1.
<mgrwt>
<rscale>  0 0.13300736E+03</rscale>
<asrwt>0</asrwt>
<pdfrwt beam="1">  1        2 0.30777160E+00 0.15855561E+03</pdfrwt>
<pdfrwt beam="2">  1        2 0.16981043E+00 0.11157573E+03</pdfrwt>
<totfact> 0.29347882E+01</totfact>
</mgrwt>
</event>
<event>
13    1  0.1595792E-008  0.2091958E+03  0.7546771E-02  0.1173099E+00
          2   -1    0    0  502    0  0.00000000000E+00  0.00000000000E+00  0.10470578808E+04  0.10470578808E+04  0.00000000000E+00 0. -1.
          2   -1    0    0  503    0 -0.00000000000E+00 -0.00000000000E+00 -0.30049345168E+04  0.30049345168E+04  0.00000000000E+00 0. -1.
         24    2    1    2    0    0  0.47240901231E+02 -0.11633693737E+03 -0.46832446231E+03  0.49107470246E+03  0.77849699118E+02 0.  0.
         25    2    1    2    0    0 -0.18435838036E+03 -0.29569429509E+00 -0.58368735917E+03  0.62474416402E+03  0.12500494938E+03 0.  0.
         24    2    1    2    0    0  0.29577126966E+03  0.24289028369E+02  0.42441342474E+03  0.52409675293E+03  0.80498760715E+02 0.  0.
        -13    1    5    5    0    0 -0.55941471396E+00  0.10209687780E+02  0.20868638485E+02  0.23238991837E+02  0.00000000000E+00 0.  1.
         14    1    5    5    0    0  0.29633068438E+03  0.14079340589E+02  0.40354478626E+03  0.50085776110E+03  0.00000000000E+00 0. -1.
        -13    1    3    3    0    0  0.80621931556E+01 -0.77579677831E+02 -0.16159716557E+03  0.17943591974E+03  0.00000000000E+00 0.  1.
         14    1    3    3    0    0  0.39178708076E+02 -0.38757259539E+02 -0.30672729673E+03  0.31163878272E+03  0.00000000000E+00 0. -1.
          5    1    4    4  501    0 -0.19108160787E+02 -0.32956940927E+02 -0.39563462335E+02  0.55123854327E+02  0.47000000000E+01 0. -1.
         -5    1    4    4    0  501 -0.16525021958E+03  0.32661246632E+02 -0.54412389684E+03  0.56962030969E+03  0.47000000000E+01 0. -1.
          1    1    1    2  502    0 -0.17547389215E+03 -0.52465832903E+02  0.52244973496E+03  0.55362214190E+03  0.00000000000E+00 0. -1.
          1    1    1    2  503    0  0.16820101622E+02  0.14480943620E+03 -0.18527279742E+04  0.18584546363E+04  0.00000000000E+00 0. -1.
<mgrwt>
<rscale>  0 0.17463447E+03</rscale>
<asrwt>0</asrwt>
<pdfrwt beam="1">  1        2 0.15397910E+00 0.20919582E+03</pdfrwt>
<pdfrwt beam="2">  1        2 0.44190214E+00 0.14578302E+03</pdfrwt>
<totfact> 0.11264193E+01</totfact>
</mgrwt>
</event>
<event>
13    1  0.1595792E-008  0.5245089E+02  0.7546771E-02  0.1487127E+00
         -1   -1    0    0    0  501 -0.00000000000E+00  0.00000000000E+00  0.26749143445E+03  0.26749143445E+03  0.00000000000E+00 0.  1.
          2   -1    0    0  503    0  0.00000000000E+00 -0.00000000000E+00 -0.90719469019E+03  0.90719469019E+03  0.00000000000E+00 0. -1.
         24    2    1    2    0    0 -0.47726479211E+02  0.24090730768E+02  0.12716499881E+03  0.15899618130E+03  0.79061170092E+02 0.  0.
         25    2    1    2    0    0  0.12303566071E+03 -0.91034968276E+01 -0.19227512893E+03  0.26039545110E+03  0.12496166728E+03 0.  0.
         24    2    1    2    0    0 -0.33480680683E+02 -0.67157819046E+01 -0.10969168628E+03  0.13995222042E+03  0.79926843157E+02 0.  0.
        -11    1    3    3    0    0 -0.24263221583E+02 -0.26094760095E+02  0.74386798761E+02  0.82480520464E+02  0.00000000000E+00 0.  1.
         12    1    3    3    0    0 -0.23463257628E+02  0.50185490863E+02  0.52778200053E+02  0.76515660832E+02  0.00000000000E+00 0. -1.
        -13    1    5    5    0    0 -0.20643821159E+02 -0.38900116390E+02 -0.30665365457E+02  0.53663311916E+02  0.00000000000E+00 0.  1.
         14    1    5    5    0    0 -0.12836859525E+02  0.32184334485E+02 -0.79026320819E+02  0.86288908505E+02  0.00000000000E+00 0. -1.
          5    1    4    4  502    0  0.11380051789E+03 -0.53027982700E+02 -0.16596434959E+03  0.20815566328E+03  0.47000000000E+01 0.  1.
         -5    1    4    4    0  502  0.92351428168E+01  0.43924485873E+02 -0.26310779340E+02  0.52239787820E+02  0.47000000000E+01 0.  1.
          1    1    1    2  503    0 -0.45223624886E+02  0.26841677685E+02 -0.53462347957E+03  0.53720379449E+03  0.00000000000E+00 0. -1.
         -2    1    1    2    0  501  0.33951240715E+01 -0.35113129720E+02  0.69722040219E+02  0.78138477324E+02  0.00000000000E+00 0.  1.
<mgrwt>
<rscale>  0 0.43015163E+02</rscale>
<asrwt>0</asrwt>
<pdfrwt beam="2">  1        2 0.13341098E+00 0.52450894E+02</pdfrwt>
<pdfrwt beam="1">  1       -1 0.39336976E-01 0.35276887E+02</pdfrwt>
<totfact> 0.24688727E+02</totfact>
</mgrwt>
</event>
<event>
13    1  0.1595792E-008  0.1602520E+03  0.7546771E-02  0.1450348E+00
          4   -1    0    0  503    0 -0.00000000000E+00  0.00000000000E+00  0.13022960146E+04  0.13022960146E+04  0.00000000000E+00 0. -1.
          2   -1    0    0  502    0  0.00000000000E+00 -0.00000000000E+00 -0.24754278231E+04  0.24754278231E+04  0.00000000000E+00 0. -1.
         24    2    1    2    0    0  0.18774785275E+02 -0.46165204948E+02  0.18493352469E+03  0.20744716650E+03  0.79688139796E+02 0.  0.
         25    2    1    2    0    0  0.58247951127E+02  0.51348854618E+02 -0.10213800317E+03  0.17912487823E+03  0.12499608644E+03 0.  0.
         24    2    1    2    0    0  0.78379275851E+02  0.77140944508E+02 -0.42825946254E+03  0.44675759670E+03  0.63969889402E+02 0.  0.
        -11    1    5    5    0    0  0.50663256532E+02  0.62380491100E+01 -0.16569785545E+03  0.17338240429E+03  0.00000000000E+00 0.  1.
         12    1    5    5    0    0  0.27716019319E+02  0.70902895398E+02 -0.26256160710E+03  0.27337519241E+03  0.00000000000E+00 0. -1.
        -13    1    3    3    0    0  0.26870550381E+02 -0.32203108379E+02  0.18656892697E+03  0.19122507989E+03  0.00000000000E+00 0.  1.
         14    1    3    3    0    0 -0.80957651065E+01 -0.13962096569E+02 -0.16354022850E+01  0.16222086607E+02  0.00000000000E+00 0. -1.
          5    1    4    4  501    0  0.71309194578E+02 -0.20079239466E+02 -0.47456434474E+02  0.88104371412E+02  0.47000000000E+01 0. -1.
         -5    1    4    4    0  501 -0.13061243451E+02  0.71428094084E+02 -0.54681568701E+02  0.91020506813E+02  0.47000000000E+01 0. -1.
          1    1    1    2  502    0 -0.14241315201E+03 -0.89894580780E+02 -0.18822177929E+04  0.18897371143E+04  0.00000000000E+00 0. -1.
          3    1    1    2  503    0 -0.12988860244E+02  0.75699866032E+01  0.10545499254E+04  0.10546570819E+04  0.00000000000E+00 0. -1.
<mgrwt>
<rscale>  0 0.49083565E+02</rscale>
<asrwt>0</asrwt>
<pdfrwt beam="2">  1        2 0.36403350E+00 0.16025197E+03</pdfrwt>
<pdfrwt beam="1">  1        4 0.19151412E+00 0.15033802E+02</pdfrwt>
<totfact> 0.41837385E-01</totfact>
</mgrwt>
</event>
<event>
13    1  0.1595792E-008  0.1030536E+03  0.7546771E-02  0.1346232E+00
          2   -1    0    0  502    0  0.00000000000E+00  0.00000000000E+00  0.13292735680E+04  0.13292735680E+04  0.00000000000E+00 0. -1.
          2   -1    0    0  503    0 -0.00000000000E+00 -0.00000000000E+00 -0.74934589611E+03  0.74934589611E+03  0.00000000000E+00 0. -1.
         24    2    1    2    0    0 -0.43273214168E+02 -0.41201316912E+02 -0.18409160313E+03  0.20309612296E+03  0.61548332517E+02 0.  0.
         25    2    1    2    0    0 -0.58130304196E+02  0.65043471957E+01  0.88761745239E+02  0.16409005305E+03  0.12500183716E+03 0.  0.
         24    2    1    2    0    0  0.23311612871E+02  0.47645286650E+02  0.13287569321E+03  0.16341431471E+03  0.78960646975E+02 0.  0.
        -11    1    3    3    0    0 -0.50755469147E+02 -0.51968614290E+02 -0.15773437140E+03  0.17365767026E+03  0.00000000000E+00 0.  1.
         12    1    3    3    0    0  0.74822549789E+01  0.10767297378E+02 -0.26357231739E+02  0.29438452700E+02  0.00000000000E+00 0. -1.
        -11    1    5    5    0    0 -0.10632725520E+02 -0.10462357112E+02  0.69126351779E+02  0.70717524551E+02  0.00000000000E+00 0.  1.
         12    1    5    5    0    0  0.33944338391E+02  0.58107643762E+02  0.63749341427E+02  0.92696790154E+02  0.00000000000E+00 0. -1.
          5    1    4    4  501    0 -0.69171851953E+02 -0.43159169151E+02  0.31980864928E+02  0.87705898923E+02  0.47000000000E+01 0. -1.
         -5    1    4    4    0  501  0.11041547757E+02  0.49663516346E+02  0.56780880310E+02  0.76384154126E+02  0.47000000000E+01 0. -1.
          1    1    1    2  502    0  0.84020562141E+02 -0.66105316447E+02  0.10410327090E+04  0.10465077491E+04  0.00000000000E+00 0. -1.
          1    1    1    2  503    0 -0.59286566482E+01  0.53156999513E+02 -0.49865087240E+03  0.50151122432E+03  0.00000000000E+00 0. -1.
<mgrwt>
<rscale>  0 0.74242749E+02</rscale>
<asrwt>0</asrwt>
<pdfrwt beam="1">  1        2 0.19548141E+00 0.10305360E+03</pdfrwt>
<pdfrwt beam="2">  1        2 0.11019793E+00 0.53486592E+02</pdfrwt>
<totfact> 0.13015359E+02</totfact>
</mgrwt>
</event>
<event>
13    1  0.1595792E-008  0.3817032E+02  0.7546771E-02  0.1528250E+00
          2   -1    0    0  503    0  0.00000000000E+00  0.00000000000E+00  0.86637984382E+03  0.86637984382E+03  0.00000000000E+00 0. -1.
         -1   -1    0    0    0  501 -0.00000000000E+00 -0.00000000000E+00 -0.28066705862E+04  0.28066705862E+04  0.00000000000E+00 0.  1.
         24    2    1    2    0    0 -0.96584995664E+00  0.54484257432E+02 -0.24793845224E+02  0.10384539265E+03  0.84850831693E+02 0.  0.
         25    2    1    2    0    0  0.41621253633E+01 -0.42614481615E+02 -0.18848171264E+02  0.13346849389E+03  0.12500107188E+03 0.  0.
         24    2    1    2    0    0  0.13195713393E+02 -0.52839394135E+02  0.76584974426E+02  0.12566417283E+03  0.83427199406E+02 0.  0.
        -11    1    3    3    0    0  0.28006287395E+02  0.56546592727E+02 -0.36074936816E+02  0.72686108363E+02  0.00000000000E+00 0.  1.
         12    1    3    3    0    0 -0.28972137352E+02 -0.20623352955E+01  0.11281091591E+02  0.31159284284E+02  0.00000000000E+00 0. -1.
        -13    1    5    5    0    0 -0.34346320284E+02 -0.14321519652E+02  0.19635775735E+02  0.42075400543E+02  0.00000000000E+00 0.  1.
         14    1    5    5    0    0  0.47542033677E+02 -0.38517874483E+02  0.56949198692E+02  0.83588772287E+02  0.00000000000E+00 0. -1.
          5    1    4    4  502    0 -0.12860888549E+02 -0.42234206048E+02 -0.68015765347E+02  0.81224164819E+02  0.47000000000E+01 0. -1.
         -5    1    4    4    0  502  0.17023013912E+02 -0.38027556667E+00  0.49167594083E+02  0.52244329071E+02  0.47000000000E+01 0. -1.
          1    1    1    2  503    0  0.19365563372E+02  0.32935631540E+02  0.66774611018E+03  0.66883828279E+03  0.00000000000E+00 0. -1.
         -2    1    1    2    0  501 -0.35757552172E+02  0.80339867789E+01 -0.26409798105E+04  0.26412340879E+04  0.00000000000E+00 0.  1.
<mgrwt>
<rscale>  0 0.37401912E+02</rscale>
<asrwt>0</asrwt>
<pdfrwt beam="1">  1        2 0.12740880E+00 0.38170316E+02</pdfrwt>
<pdfrwt beam="2">  1       -1 0.41274567E+00 0.36648977E+02</pdfrwt>
<totfact> 0.42874623E-01</totfact>
</mgrwt>
</event>
<event>
13    1  0.1595792E-008  0.6423177E+02  0.7546771E-02  0.1453217E+00
          2   -1    0    0  502    0  0.00000000000E+00  0.00000000000E+00  0.18486734097E+03  0.18486734097E+03  0.00000000000E+00 0. -1.
          2   -1    0    0  503    0 -0.00000000000E+00 -0.00000000000E+00 -0.21359587272E+04  0.21359587272E+04  0.00000000000E+00 0. -1.
         24    2    1    2    0    0  0.38129917460E+02 -0.34655790919E+01 -0.90385512181E+02  0.12718353315E+03  0.80871561435E+02 0.  0.
         25    2    1    2    0    0 -0.21035233148E+03 -0.36825349423E+02 -0.22930652573E+03  0.33735614076E+03  0.12499389284E+03 0.  0.
         24    2    1    2    0    0  0.97669895374E+02  0.23970259477E+02 -0.37325840823E+02  0.12408057347E+03  0.62360151679E+02 0.  0.
        -13    1    5    5    0    0  0.11817667359E+02 -0.14214097951E+02  0.75324486015E+01  0.19960852294E+02  0.00000000000E+00 0.  1.
         14    1    5    5    0    0  0.85852228015E+02  0.38184357429E+02 -0.44858289425E+02  0.10411972117E+03  0.00000000000E+00 0. -1.
        -13    1    3    3    0    0 -0.22821561568E+02  0.13092926266E+02 -0.27230869062E+02  0.37865137270E+02  0.00000000000E+00 0.  1.
         14    1    3    3    0    0  0.60951479028E+02 -0.16558505358E+02 -0.63154643119E+02  0.89318395882E+02  0.00000000000E+00 0. -1.
          5    1    4    4  501    0 -0.22067995814E+03 -0.31874437918E+02 -0.23478026344E+03  0.32382014424E+03  0.47000000000E+01 0. -1.
         -5    1    4    4    0  501  0.10327626659E+02 -0.49509115050E+01  0.54737377114E+01  0.13535996515E+02  0.47000000000E+01 0. -1.
          1    1    1    2  502    0  0.61550159632E+02 -0.18026105501E+02  0.53928129938E+02  0.83795022697E+02  0.00000000000E+00 0. -1.
          1    1    1    2  503    0  0.13002359012E+02  0.34346774539E+02 -0.16480016374E+04  0.16484107981E+04  0.00000000000E+00 0. -1.
<mgrwt>
<rscale>  0 0.48568958E+02</rscale>
<asrwt>0</asrwt>
<pdfrwt beam="1">  1        2 0.27186375E-01 0.64231768E+02</pdfrwt>
<pdfrwt beam="2">  1        2 0.31411156E+00 0.36725499E+02</pdfrwt>
<totfact> 0.25914603E+02</totfact>
</mgrwt>
</event>
<event>
13    1  0.1595792E-008  0.1501043E+03  0.7546771E-02  0.1413506E+00
         -1   -1    0    0    0  501 -0.00000000000E+00  0.00000000000E+00  0.16001518840E+04  0.16001518840E+04  0.00000000000E+00 0.  1.
          2   -1    0    0  503    0  0.00000000000E+00 -0.00000000000E+00 -0.81211740202E+03  0.81211740202E+03  0.00000000000E+00 0. -1.
         24    2    1    2    0    0  0.90693492821E+02  0.73283999082E+02  0.42399160523E+02  0.14848379565E+03  0.81571407957E+02 0.  0.
         25    2    1    2    0    0 -0.12367948007E+03 -0.32392408067E+02 -0.45049525426E+02  0.18439237688E+03  0.12500082809E+03 0.  0.
         24    2    1    2    0    0  0.70561573900E+02 -0.19974719985E+03 -0.57417380808E+01  0.22502384913E+03  0.75662973512E+02 0.  0.
        -11    1    3    3    0    0  0.14361630656E+02  0.19297771212E+02  0.49176548428E+02  0.54744801800E+02  0.00000000000E+00 0.  1.
         12    1    3    3    0    0  0.76331862165E+02  0.53986227870E+02 -0.67773879054E+01  0.93738993850E+02  0.00000000000E+00 0. -1.
        -13    1    5    5    0    0  0.13481558003E+02 -0.92167378901E+02 -0.35453380265E+02  0.99667047272E+02  0.00000000000E+00 0.  1.
         14    1    5    5    0    0  0.57080015897E+02 -0.10757982095E+03  0.29711642184E+02  0.12535680186E+03  0.00000000000E+00 0. -1.
          5    1    4    4  502    0 -0.10020262768E+03  0.78779564506E+01 -0.77832804904E+02  0.12721110137E+03  0.47000000000E+01 0. -1.
         -5    1    4    4    0  502 -0.23476852384E+02 -0.40270364518E+02  0.32783279478E+02  0.57181275515E+02  0.47000000000E+01 0. -1.
          1    1    1    2  503    0 -0.17886195070E+02  0.11391516072E+02 -0.52458160058E+03  0.52501003636E+03  0.00000000000E+00 0. -1.
         -2    1    1    2    0  501 -0.19689391587E+02  0.14746409277E+03  0.13210081855E+04  0.13293592280E+04  0.00000000000E+00 0.  1.
<mgrwt>
<rscale>  0 0.56418693E+02</rscale>
<asrwt>0</asrwt>
<pdfrwt beam="2">  1        2 0.11942903E+00 0.21205721E+02</pdfrwt>
<pdfrwt beam="1">  1       -1 0.23531645E+00 0.15010425E+03</pdfrwt>
<totfact> 0.48611896E+00</totfact>
</mgrwt>
</event>
<event>
13    1  0.1595792E-008  0.4243085E+02  0.7546771E-02  0.1556227E+00
          4   -1    0    0  503    0 -0.00000000000E+00  0.00000000000E+00  0.69438155936E+03  0.69438155936E+03  0.00000000000E+00 0. -1.
          2   -1    0    0  502    0  0.00000000000E+00 -0.00000000000E+00 -0.90473881249E+03  0.90473881249E+03  0.00000000000E+00 0. -1.
         24    2    1    2    0    0  0.13293590362E+02 -0.36679038626E+01 -0.15176287548E+02  0.81890916542E+02  0.79281961661E+02 0.  0.
         25    2    1    2    0    0  0.71475401496E+02  0.12458807261E+03 -0.85183797646E+02  0.20859652710E+03  0.12500124352E+03 0.  0.
         24    2    1    2    0    0 -0.12484837450E+03 -0.99203482665E+02 -0.49926611649E+03  0.53044808089E+03  0.81731657657E+02 0.  0.
        -13    1    5    5    0    0 -0.34424585404E+02 -0.21409695667E+02 -0.44057809291E+02  0.59870841888E+02  0.00000000000E+00 0.  1.
         14    1    5    5    0    0 -0.90423789092E+02 -0.77793786998E+02 -0.45520830720E+03  0.47057723901E+03  0.00000000000E+00 0. -1.
        -13    1    3    3    0    0  0.52665817338E+01  0.35159006097E+02  0.73319380611E+01  0.36299447772E+02  0.00000000000E+00 0.  1.
         14    1    3    3    0    0  0.80270086284E+01 -0.38826909959E+02 -0.22508225609E+02  0.45591468770E+02  0.00000000000E+00 0. -1.
          5    1    4    4  501    0  0.41975890877E+02  0.27943649328E+02 -0.94291468733E+02  0.10703174309E+03  0.47000000000E+01 0.  1.
         -5    1    4    4    0  501  0.29499510619E+02  0.96644423286E+02  0.91076710876E+01  0.10156478401E+03  0.47000000000E+01 0.  1.
          1    1    1    2  502    0 -0.19720660115E+01 -0.27423849568E+02 -0.19270961238E+03  0.19466111905E+03  0.00000000000E+00 0. -1.
          3    1    1    2  503    0  0.42051448650E+02  0.57071634818E+01  0.58197856093E+03  0.58352372825E+03  0.00000000000E+00 0. -1.
<mgrwt>
<rscale>  0 0.34155846E+02</rscale>
<asrwt>0</asrwt>
<pdfrwt beam="2">  1        2 0.13304982E+00 0.27494664E+02</pdfrwt>
<pdfrwt beam="1">  1        4 0.10211494E+00 0.42430845E+02</pdfrwt>
<totfact> 0.14090116E+01</totfact>
</mgrwt>
</event>
<event>
13    1  0.1595792E-008  0.1342896E+03  0.7546771E-02  0.1225089E+00
         -3   -1    0    0    0  501 -0.00000000000E+00  0.00000000000E+00  0.25165507057E+04  0.25165507057E+04  0.00000000000E+00 0.  1.
          2   -1    0    0  503    0  0.00000000000E+00 -0.00000000000E+00 -0.15861490872E+04  0.15861490872E+04  0.00000000000E+00 0. -1.
         24    2    1    2    0    0 -0.27655475545E+02  0.10203728721E+03  0.69799856350E+03  0.71086032418E+03  0.83330501861E+02 0.  0.
         25    2    1    2    0    0 -0.24506552600E+03  0.26415539282E+02 -0.25741556455E+02  0.27756166148E+03  0.12499182152E+03 0.  0.
         24    2    1    2    0    0  0.37541711103E+02  0.34310460624E+02 -0.18438399010E+03  0.20632867170E+03  0.77378790260E+02 0.  0.
        -13    1    3    3    0    0 -0.10136553381E+02 -0.10620779206E+02  0.32447654879E+02  0.35614617400E+02  0.00000000000E+00 0.  1.
         14    1    3    3    0    0 -0.17518922163E+02  0.11265806641E+03  0.66555090862E+03  0.67524570678E+03  0.00000000000E+00 0. -1.
        -13    1    5    5    0    0  0.32135863866E+02  0.54753080830E+02 -0.16794738565E+03  0.17954647853E+03  0.00000000000E+00 0.  1.
         14    1    5    5    0    0  0.54058472363E+01 -0.20442620206E+02 -0.16436604444E+02  0.26782193168E+02  0.00000000000E+00 0. -1.
          5    1    4    4  502    0 -0.15345381986E+02 -0.21544512985E+01  0.34676470813E+02  0.38271007783E+02  0.47000000000E+01 0.  1.
         -5    1    4    4    0  502 -0.22972014402E+03  0.28569990581E+02 -0.60418027268E+02  0.23929065370E+03  0.47000000000E+01 0.  1.
          1    1    1    2  503    0  0.15163824021E+03 -0.64489711646E+02 -0.12247013768E+04  0.12357372460E+04  0.00000000000E+00 0. -1.
         -4    1    1    2    0  501  0.83541050239E+02 -0.98273575466E+02  0.16672299783E+04  0.16722118895E+04  0.00000000000E+00 0.  1.
<mgrwt>
<rscale>  0 0.13160826E+03</rscale>
<asrwt>0</asrwt>
<pdfrwt beam="2">  1        2 0.23325722E+00 0.13428956E+03</pdfrwt>
<pdfrwt beam="1">  1       -3 0.37008099E+00 0.12898049E+03</pdfrwt>
<totfact> 0.17433232E-01</totfact>
</mgrwt>
</event>
<event>
13    1  0.1595792E-008  0.6706683E+02  0.7546771E-02  0.1402233E+00
          2   -1    0    0  503    0  0.00000000000E+00  0.00000000000E+00  0.23334134826E+04  0.23334134826E+04  0.00000000000E+00 0. -1.
          2   -1    0    0  502    0 -0.00000000000E+00 -0.00000000000E+00 -0.62358955752E+03  0.62358955752E+03  0.00000000000E+00 0. -1.
         24    2    1    2    0    0 -0.26803940638E+02 -0.72420280238E+02 -0.63443855490E+01  0.13168636145E+03  0.10647956771E+03 0.  0.
         25    2    1    2    0    0 -0.36003225357E+02  0.93865704311E+02  0.42980177205E+03  0.45875984939E+03  0.12499613386E+03 0.  0.
         24    2    1    2    0    0  0.78068908061E+02 -0.28205751055E+02  0.91712240830E+03  0.92449760976E+03  0.81804644365E+02 0.  0.
        -13    1    3    3    0    0  0.26027819184E+02 -0.73693295355E+02 -0.95838375145E+01  0.78740072982E+02  0.00000000000E+00 0.  1.
         14    1    3    3    0    0 -0.52831759822E+02  0.12730151162E+01  0.32394519654E+01  0.52946288467E+02  0.00000000000E+00 0. -1.
        -13    1    5    5    0    0  0.55063274658E+02  0.23377121129E+02  0.44188356705E+03  0.44591427521E+03  0.00000000000E+00 0.  1.
         14    1    5    5    0    0  0.23005633403E+02 -0.51582872184E+02  0.47523884126E+03  0.47858333455E+03  0.00000000000E+00 0. -1.
          5    1    4    4  501    0  0.35470194149E+02  0.39795832304E+00  0.16686241602E+03  0.17065593726E+03  0.47000000000E+01 0.  1.
         -5    1    4    4    0  501 -0.71473419506E+02  0.93467745988E+02  0.26293935603E+03  0.28810391213E+03  0.47000000000E+01 0.  1.
          1    1    1    2  502    0 -0.67025565683E+02  0.39629060727E+01 -0.53356000608E+03  0.53776799009E+03  0.00000000000E+00 0. -1.
          1    1    1    2  503    0  0.51763823618E+02  0.27974209098E+01  0.90280413639E+03  0.90429122946E+03  0.00000000000E+00 0. -1.
<mgrwt>
<rscale>  0 0.58963558E+02</rscale>
<asrwt>0</asrwt>
<pdfrwt beam="1">  1        2 0.34314904E+00 0.51839358E+02</pdfrwt>
<pdfrwt beam="2">  1        2 0.91704347E-01 0.67066825E+02</pdfrwt>
<totfact> 0.56007415E+01</totfact>
</mgrwt>
</event>
<event>
13    1  0.1595792E-008  0.7513774E+02  0.7546771E-02  0.1419007E+00
          2   -1    0    0  502    0  0.00000000000E+00  0.00000000000E+00  0.54871675148E+03  0.54871675148E+03  0.00000000000E+00 0. -1.
          2   -1    0    0  503    0 -0.00000000000E+00 -0.00000000000E+00 -0.10090013943E+04  0.10090013943E+04  0.00000000000E+00 0. -1.
         24    2    1    2    0    0 -0.51376193682E+02  0.36724485091E+02 -0.11530410008E+03  0.15415793500E+03  0.80507343423E+02 0.  0.
         25    2    1    2    0    0  0.37632032244E+02  0.11318511323E+01 -0.73297389798E+02  0.14973257253E+03  0.12501953842E+03 0.  0.
         24    2    1    2    0    0  0.48972753056E+01  0.12539935259E+02  0.10820424726E+03  0.13603760400E+03  0.81343944440E+02 0.  0.
        -11    1    3    3    0    0 -0.31036525201E+02 -0.19663435246E+02 -0.69869542051E+02  0.78940924042E+02  0.00000000000E+00 0.  1.
         12    1    3    3    0    0 -0.20339668481E+02  0.56387920337E+02 -0.45434558031E+02  0.75217010958E+02  0.00000000000E+00 0. -1.
        -11    1    5    5    0    0  0.19475266379E+02  0.13026067018E+02 -0.32310741507E+01  0.23651728534E+02  0.00000000000E+00 0.  1.
         12    1    5    5    0    0 -0.14577991074E+02 -0.48613175900E+00  0.11143532141E+03  0.11238587547E+03  0.00000000000E+00 0. -1.
          5    1    4    4  501    0  0.62660345817E+02 -0.43675857783E+02 -0.29210132637E+02  0.81909836648E+02  0.47000000000E+01 0.  1.
         -5    1    4    4    0  501 -0.25028313573E+02  0.44807708916E+02 -0.44087257162E+02  0.67822735883E+02  0.47000000000E+01 0.  1.
          1    1    1    2  502    0 -0.39962714847E+02  0.71593452467E+01  0.36592451769E+03  0.36816983506E+03  0.00000000000E+00 0. -1.
          1    1    1    2  503    0  0.48809600980E+02 -0.57555616729E+02 -0.74581191784E+03  0.74962019914E+03  0.00000000000E+00 0. -1.
<mgrwt>
<rscale>  0 0.55231454E+02</rscale>
<asrwt>0</asrwt>
<pdfrwt beam="1">  1        2 0.80693641E-01 0.40598951E+02</pdfrwt>
<pdfrwt beam="2">  1        2 0.14838256E+00 0.75137742E+02</pdfrwt>
<totfact> 0.27808151E+02</totfact>
</mgrwt>
</event>
<event>
13    1  0.1595792E-008  0.2098446E+03  0.7546771E-02  0.1436699E+00
          2   -1    0    0  502    0  0.00000000000E+00  0.00000000000E+00  0.40665086117E+04  0.40665086117E+04  0.00000000000E+00 0. -1.
          2   -1    0    0  503    0 -0.00000000000E+00 -0.00000000000E+00 -0.55675850530E+03  0.55675850530E+03  0.00000000000E+00 0. -1.
         24    2    1    2    0    0 -0.19980107755E+02  0.12666666539E+03  0.51449429588E+03  0.53651489532E+03  0.81854771236E+02 0.  0.
         25    2    1    2    0    0  0.35791242395E+02 -0.98443962673E+02  0.79568498324E+03  0.81222449228E+03  0.12498722532E+03 0.  0.
         24    2    1    2    0    0  0.18953851240E+03 -0.33531568689E+02  0.25945439474E+04  0.26028931939E+04  0.79658459857E+02 0.  0.
        -11    1    5    5    0    0  0.15605262507E+03 -0.55377509740E+02  0.22371625448E+04  0.22432822698E+04  0.00000000000E+00 0.  1.
         12    1    5    5    0    0  0.33485887330E+02  0.21845941052E+02  0.35738140260E+03  0.35961092408E+03  0.00000000000E+00 0. -1.
        -13    1    3    3    0    0 -0.24174219428E+02  0.43467633513E+02  0.80715134028E+02  0.94809076092E+02  0.00000000000E+00 0.  1.
         14    1    3    3    0    0  0.41941116726E+01  0.83199031873E+02  0.43377916185E+03  0.44170581922E+03  0.00000000000E+00 0. -1.
          5    1    4    4  501    0 -0.55902061635E+01  0.85774583899E+01  0.35547645529E+01  0.11813109176E+02  0.47000000000E+01 0. -1.
         -5    1    4    4    0  501  0.41381448559E+02 -0.10702142106E+03  0.79213021868E+03  0.80041138310E+03  0.47000000000E+01 0. -1.
          1    1    1    2  502    0  0.39176843776E+01 -0.12088192043E+02  0.11730337156E+03  0.11798963351E+03  0.00000000000E+00 0. -1.
          1    1    1    2  503    0 -0.20926733142E+03  0.17397058018E+02 -0.51227649163E+03  0.55364490200E+03  0.00000000000E+00 0. -1.
<mgrwt>
<rscale>  0 0.51638498E+02</rscale>
<asrwt>0</asrwt>
<pdfrwt beam="1">  1        2 0.59801595E+00 0.12707188E+02</pdfrwt>
<pdfrwt beam="2">  1        2 0.81876254E-01 0.20984457E+03</pdfrwt>
<totfact> 0.10061738E+01</totfact>
</mgrwt>
</event>
<event>
13    1  0.1595792E-008  0.1545934E+03  0.7546771E-02  0.1326730E+00
          2   -1    0    0  503    0  0.00000000000E+00  0.00000000000E+00  0.28487037028E+04  0.28487037028E+04  0.00000000000E+00 0. -1.
         -3   -1    0    0    0  501 -0.00000000000E+00 -0.00000000000E+00 -0.54051115641E+03  0.54051115641E+03  0.00000000000E+00 0.  1.
         24    2    1    2    0    0  0.24405481621E+02 -0.42575104979E+02 -0.12195158807E+03  0.15086304135E+03  0.74021620581E+02 0.  0.
         25    2    1    2    0    0  0.72724351416E+02  0.23114529903E+03 -0.24596897111E+02  0.27376528657E+03  0.12500177691E+03 0.  0.
         24    2    1    2    0    0  0.62681734155E+02  0.11954823551E+02  0.20966383427E+03  0.23167138093E+03  0.75105177846E+02 0.  0.
        -13    1    3    3    0    0  0.16244449537E+02 -0.41225870911E+02 -0.20066583822E+02  0.48642803778E+02  0.00000000000E+00 0.  1.
         14    1    3    3    0    0  0.81610320843E+01 -0.13492340686E+01 -0.10188500425E+03  0.10222023757E+03  0.00000000000E+00 0. -1.
        -13    1    5    5    0    0  0.28129172266E+02 -0.28387974364E+02  0.12933819913E+03  0.13537170006E+03  0.00000000000E+00 0.  1.
         14    1    5    5    0    0  0.34552561890E+02  0.40342797915E+02  0.80325635134E+02  0.96299680874E+02  0.00000000000E+00 0. -1.
          5    1    4    4  502    0 -0.25304107642E+02  0.24728278798E+02 -0.27707980724E+02  0.45184154653E+02  0.47000000000E+01 0.  1.
         -5    1    4    4    0  502  0.98028459059E+02  0.20641702023E+03  0.31110836133E+01  0.22858113191E+03  0.47000000000E+01 0.  1.
          1    1    1    2  503    0 -0.14158934819E+03 -0.23864992947E+03  0.24793660727E+04  0.24948461786E+04  0.00000000000E+00 0. -1.
         -4    1    1    2    0  501 -0.18222219000E+02  0.38124911874E+02 -0.23428887542E+03  0.23806897176E+03  0.00000000000E+00 0.  1.
<mgrwt>
<rscale>  0 0.80823759E+02</rscale>
<asrwt>0</asrwt>
<pdfrwt beam="1">  1        2 0.41892701E+00 0.15459345E+03</pdfrwt>
<pdfrwt beam="2">  1       -3 0.79486936E-01 0.42255866E+02</pdfrwt>
<totfact> 0.29020150E+00</totfact>
</mgrwt>
</event>
<event>
13    1  0.1595792E-008  0.9355379E+02  0.7546771E-02  0.1397801E+00
          2   -1    0    0  502    0  0.00000000000E+00  0.00000000000E+00  0.10645822324E+04  0.10645822324E+04  0.00000000000E+00 0. -1.
          2   -1    0    0  503    0 -0.00000000000E+00 -0.00000000000E+00 -0.31304079743E+04  0.31304079743E+04  0.00000000000E+00 0. -1.
         24    2    1    2    0    0  0.31022835631E+02 -0.48852864451E+02 -0.81624869627E+03  0.82222919264E+03  0.80311221892E+02 0.  0.
         25    2    1    2    0    0  0.81491991003E+02 -0.88320532163E+02 -0.33624414101E+03  0.37832196176E+03  0.12500369347E+03 0.  0.
         24    2    1    2    0    0 -0.54703140059E+02  0.19313302694E+02  0.67357826862E+02  0.11951746540E+03  0.79886860642E+02 0.  0.
        -11    1    5    5    0    0 -0.36486931943E+02  0.46838185327E+02  0.62413039548E+02  0.86142320104E+02  0.00000000000E+00 0.  1.
         12    1    5    5    0    0 -0.18216208115E+02 -0.27524882633E+02  0.49447873143E+01  0.33375145298E+02  0.00000000000E+00 0. -1.
        -13    1    3    3    0    0 -0.23324657496E+02  0.26015956079E+01 -0.23886234695E+03  0.24001255954E+03  0.00000000000E+00 0.  1.
         14    1    3    3    0    0  0.54347493127E+02 -0.51454460059E+02 -0.57738634932E+03  0.58221663310E+03  0.00000000000E+00 0. -1.
          5    1    4    4  501    0  0.87080230009E+02 -0.49150372972E+02 -0.11055124040E+03  0.14913883591E+03  0.47000000000E+01 0.  1.
         -5    1    4    4    0  501 -0.55882390066E+01 -0.39170159191E+02 -0.22569290062E+03  0.22918312585E+03  0.47000000000E+01 0.  1.
          1    1    1    2  502    0 -0.21051677655E+02  0.32222754321E+02  0.94559739596E+03  0.94638042788E+03  0.00000000000E+00 0. -1.
          1    1    1    2  503    0 -0.36760008920E+02  0.85637339599E+02 -0.19262881274E+04  0.19285411590E+04  0.00000000000E+00 0. -1.
<mgrwt>
<rscale>  0 0.60007367E+02</rscale>
<asrwt>0</asrwt>
<pdfrwt beam="1">  1        2 0.15655621E+00 0.38489986E+02</pdfrwt>
<pdfrwt beam="2">  1        2 0.46035412E+00 0.93553792E+02</pdfrwt>
<totfact> 0.11006450E+01</totfact>
</mgrwt>
</event>
<event>
13    1  0.1595792E-008  0.1763904E+03  0.7546771E-02  0.1297096E+00
         -1   -1    0    0    0  501 -0.00000000000E+00  0.00000000000E+00  0.47865561429E+03  0.47865561429E+03  0.00000000000E+00 0.  1.
          2   -1    0    0  503    0  0.00000000000E+00 -0.00000000000E+00 -0.96268476291E+03  0.96268476291E+03  0.00000000000E+00 0. -1.
         24    2    1    2    0    0 -0.72591940956E+02 -0.19274791300E+02  0.15405786071E+02  0.11062648104E+03  0.79748182369E+02 0.  0.
         25    2    1    2    0    0 -0.27465112631E+03  0.65681341234E+02 -0.40251607587E+03  0.50733764233E+03  0.12500004889E+03 0.  0.
         24    2    1    2    0    0  0.43464876891E+02 -0.74587013864E+01 -0.16578720240E+03  0.18950801251E+03  0.80517467509E+02 0.  0.
        -11    1    5    5    0    0 -0.15808072060E+02  0.11120929935E+02 -0.99322354297E+01  0.21730612635E+02  0.00000000000E+00 0.  1.
         12    1    5    5    0    0  0.59272948951E+02 -0.18579631322E+02 -0.15585496697E+03  0.16777739987E+03  0.00000000000E+00 0. -1.
        -11    1    3    3    0    0 -0.93963659075E+01  0.24588552082E+02 -0.12046631026E+02  0.28948400731E+02  0.00000000000E+00 0.  1.
         12    1    3    3    0    0 -0.63195575049E+02 -0.43863343383E+02  0.27452417097E+02  0.81678080309E+02  0.00000000000E+00 0. -1.
          5    1    4    4  502    0 -0.15076185171E+03  0.32929110396E+02 -0.31874913375E+03  0.35417024509E+03  0.47000000000E+01 0.  1.
         -5    1    4    4    0  502 -0.12388927459E+03  0.32752230837E+02 -0.83766942127E+02  0.15316739724E+03  0.47000000000E+01 0.  1.
          1    1    1    2  503    0 -0.38087669903E+02 -0.29901836740E+02 -0.19562968348E+03  0.20153352947E+03  0.00000000000E+00 0. -1.
         -2    1    1    2    0  501  0.34186586027E+03 -0.90460118067E+01  0.26449802707E+03  0.43233471186E+03  0.00000000000E+00 0.  1.
<mgrwt>
<rscale>  0 0.92419459E+02</rscale>
<asrwt>0</asrwt>
<pdfrwt beam="2">  1        2 0.14157129E+00 0.48423036E+02</pdfrwt>
<pdfrwt beam="1">  1       -1 0.70390532E-01 0.17639035E+03</pdfrwt>
<totfact> 0.78871855E+01</totfact>
</mgrwt>
</event>
<event>
13    1  0.1595792E-008  0.2173161E+03  0.7546771E-02  0.1434180E+00
          2   -1    0    0  502    0  0.00000000000E+00  0.00000000000E+00  0.87061067178E+03  0.87061067178E+03  0.00000000000E+00 0. -1.
          2   -1    0    0  503    0 -0.00000000000E+00 -0.00000000000E+00 -0.36065353776E+04  0.36065353776E+04  0.00000000000E+00 0. -1.
         24    2    1    2    0    0 -0.53134603894E+01  0.14769256815E+03 -0.22106610235E+03  0.28073985181E+03  0.90018416114E+02 0.  0.
         25    2    1    2    0    0 -0.30252467589E+03  0.10317808428E+03  0.32302078821E+03  0.47133316241E+03  0.12508246791E+03 0.  0.
         24    2    1    2    0    0  0.15358080841E+03  0.10555345581E+03  0.25565245248E+03  0.32644658836E+03  0.80502185343E+02 0.  0.
        -13    1    5    5    0    0  0.13102805197E+03  0.11532866511E+03  0.19909618975E+03  0.26477980318E+03  0.00000000000E+00 0.  1.
         14    1    5    5    0    0  0.22552756441E+02 -0.97752092997E+01  0.56556262732E+02  0.61666785177E+02  0.00000000000E+00 0. -1.
        -13    1    3    3    0    0 -0.45882502080E+02  0.57485949998E+02 -0.10578988585E+03  0.12884618113E+03  0.00000000000E+00 0.  1.
         14    1    3    3    0    0  0.40569041691E+02  0.90206618149E+02 -0.11527621649E+03  0.15189367067E+03  0.00000000000E+00 0. -1.
          5    1    4    4  501    0 -0.16589372980E+03  0.11207503271E+03  0.14771463798E+03  0.24884382013E+03  0.47000000000E+01 0. -1.
         -5    1    4    4    0  501 -0.13663094608E+03 -0.88969484359E+01  0.17530615023E+03  0.22248934228E+03  0.47000000000E+01 0. -1.
          1    1    1    2  502    0 -0.83700692983E+01  0.92907604566E+01  0.13992983437E+03  0.14048748997E+03  0.00000000000E+00 0. -1.
          1    1    1    2  503    0  0.16262739717E+03 -0.36571486869E+03 -0.32334616785E+04  0.32581389568E+04  0.00000000000E+00 0. -1.
<mgrwt>
<rscale>  0 0.52130113E+02</rscale>
<asrwt>0</asrwt>
<pdfrwt beam="1">  1        2 0.12803098E+00 0.12505051E+02</pdfrwt>
<pdfrwt beam="2">  1        2 0.53037285E+00 0.21731609E+03</pdfrwt>
<totfact> 0.68097744E+00</totfact>
</mgrwt>
</event>
<event>
13    1  0.1595792E-008  0.1961955E+03  0.7546771E-02  0.1336328E+00
          2   -1    0    0  502    0  0.00000000000E+00  0.00000000000E+00  0.24870398561E+04  0.24870398561E+04  0.00000000000E+00 0. -1.
          2   -1    0    0  503    0 -0.00000000000E+00 -0.00000000000E+00 -0.13933672039E+04  0.13933672039E+04  0.00000000000E+00 0. -1.
         24    2    1    2    0    0 -0.97817167358E+02 -0.32894481998E+02 -0.18647343279E+03  0.22742355736E+03  0.79365534915E+02 0.  0.
         25    2    1    2    0    0  0.21205652176E+03 -0.64205274759E+02 -0.74995022786E+03  0.79192140268E+03  0.12499551200E+03 0.  0.
         24    2    1    2    0    0  0.27254644781E+02  0.11254176242E+02 -0.13832300156E+02  0.90146587546E+02  0.84057138743E+02 0.  0.
        -11    1    3    3    0    0 -0.93671384865E+02 -0.58164152553E+01 -0.17317779195E+03  0.19697387303E+03  0.00000000000E+00 0.  1.
         12    1    3    3    0    0 -0.41457824936E+01 -0.27078066743E+02 -0.13295640832E+02  0.30449684336E+02  0.00000000000E+00 0. -1.
        -13    1    5    5    0    0  0.57684016585E+02  0.10204540987E+02 -0.76395470649E+01  0.59075723487E+02  0.00000000000E+00 0.  1.
         14    1    5    5    0    0 -0.30429371804E+02  0.10496352547E+01 -0.61927530906E+01  0.31070864059E+02  0.00000000000E+00 0. -1.
          5    1    4    4  501    0  0.15608083338E+03 -0.14114012211E+02 -0.63828916168E+03  0.65726370340E+03  0.47000000000E+01 0.  1.
         -5    1    4    4    0  501  0.55975688384E+02 -0.50091262548E+02 -0.11166106618E+03  0.13465769927E+03  0.47000000000E+01 0.  1.
          1    1    1    2  502    0 -0.16736234652E+03  0.10220252350E+03  0.24027761420E+04  0.24107651688E+04  0.00000000000E+00 0. -1.
          1    1    1    2  503    0  0.25868347338E+02 -0.16356942981E+02 -0.35884752890E+03  0.36015034357E+03  0.00000000000E+00 0. -1.
<mgrwt>
<rscale>  0 0.77490258E+02</rscale>
<asrwt>0</asrwt>
<pdfrwt beam="1">  1        2 0.36574116E+00 0.19619552E+03</pdfrwt>
<pdfrwt beam="2">  1        2 0.20490694E+00 0.30605898E+02</pdfrwt>
<totfact> 0.15048358E+01</totfact>
</mgrwt>
</event>
<event>
13    1  0.1595792E-008  0.5874461E+02  0.7546771E-02  0.1550896E+00
          2   -1    0    0  502    0  0.00000000000E+00  0.00000000000E+00  0.10953264993E+04  0.10953264993E+04  0.00000000000E+00 0. -1.
          2   -1    0    0  503    0 -0.00000000000E+00 -0.00000000000E+00 -0.14406584372E+04  0.14406584372E+04  0.00000000000E+00 0. -1.
         24    2    1    2    0    0  0.87103876062E+02  0.78046232067E+02 -0.16741086780E+03  0.22086327474E+03  0.84118297085E+02 0.  0.
         25    2    1    2    0    0  0.23300426149E+01  0.17147257134E+03 -0.19430114811E+03  0.28772753718E+03  0.12500371064E+03 0.  0.
         24    2    1    2    0    0 -0.48053384308E+02 -0.19881031446E+03  0.93106965707E+02  0.24834110388E+03  0.10568693362E+03 0.  0.
        -13    1    3    3    0    0  0.20022809669E+02  0.32331636264E+02 -0.12212450076E+03  0.12790872252E+03  0.00000000000E+00 0.  1.
         14    1    3    3    0    0  0.67081066394E+02  0.45714595803E+02 -0.45286367038E+02  0.92954552215E+02  0.00000000000E+00 0. -1.
        -13    1    5    5    0    0  0.27015045160E+02 -0.10428801414E+03  0.28514765621E+02  0.11144009340E+03  0.00000000000E+00 0.  1.
         14    1    5    5    0    0 -0.75068429468E+02 -0.94522300316E+02  0.64592200086E+02  0.13690101048E+03  0.00000000000E+00 0. -1.
          5    1    4    4  501    0 -0.40428393701E+02  0.20406003053E+02 -0.84815270488E+02  0.96263077479E+02  0.47000000000E+01 0.  1.
         -5    1    4    4    0  501  0.42758436316E+02  0.15106656828E+03 -0.10948587763E+03  0.19146445970E+03  0.47000000000E+01 0.  1.
          1    1    1    2  502    0 -0.21237013903E+02 -0.54764089271E+02  0.85003569778E+03  0.85206267594E+03  0.00000000000E+00 0. -1.
          1    1    1    2  503    0 -0.20143520466E+02  0.40556003232E+01 -0.92676258554E+03  0.92699034475E+03  0.00000000000E+00 0. -1.
<mgrwt>
<rscale>  0 0.34742892E+02</rscale>
<asrwt>0</asrwt>
<pdfrwt beam="1">  1        2 0.16107743E+00 0.58744611E+02</pdfrwt>
<pdfrwt beam="2">  1        2 0.21186153E+00 0.20547732E+02</pdfrwt>
<totfact> 0.80965476E+01</totfact>
</mgrwt>
</event>
<event>
13    1  0.1595792E-008  0.2685001E+03  0.7546771E-02  0.1331997E+00
         -3   -1    0    0    0  501 -0.00000000000E+00  0.00000000000E+00  0.10291050940E+04  0.10291050940E+04  0.00000000000E+00 0.  1.
          2   -1    0    0  503    0  0.00000000000E+00 -0.00000000000E+00 -0.12613141029E+04  0.12613141029E+04  0.00000000000E+00 0. -1.
         24    2    1    2    0    0  0.53684802460E+02 -0.58785999049E+02  0.82435821538E+02  0.13195080242E+03  0.65402583185E+02 0.  0.
         25    2    1    2    0    0  0.18839276277E+03  0.15216902753E+03  0.24865152443E+03  0.36891408326E+03  0.12499109657E+03 0.  0.
         24    2    1    2    0    0 -0.81730671829E+02  0.99321449001E+02 -0.66337985194E+02  0.16561339365E+03  0.80513445625E+02 0.  0.
        -11    1    3    3    0    0  0.55621188544E+02 -0.43388111779E+02  0.28937732240E+02  0.76247211136E+02  0.00000000000E+00 0.  1.
         12    1    3    3    0    0 -0.19363860839E+01 -0.15397887271E+02  0.53498089298E+02  0.55703591285E+02  0.00000000000E+00 0. -1.
        -13    1    5    5    0    0  0.27622879950E+01  0.49769985831E+01 -0.34577458713E+02  0.35042850924E+02  0.00000000000E+00 0.  1.
         14    1    5    5    0    0 -0.84492959824E+02  0.94344450418E+02 -0.31760526481E+02  0.13057054272E+03  0.00000000000E+00 0. -1.
          5    1    4    4  502    0  0.24250880783E+02  0.29060691166E+02  0.12182594021E+03  0.12765687877E+03  0.47000000000E+01 0. -1.
         -5    1    4    4    0  502  0.16414188199E+03  0.12310833636E+03  0.12682558422E+03  0.24125720449E+03  0.47000000000E+01 0. -1.
          1    1    1    2  503    0 -0.16286146054E+03 -0.21579480976E+03 -0.10429675347E+04  0.10774379488E+04  0.00000000000E+00 0. -1.
         -4    1    1    2    0  501  0.25145671332E+01  0.23090332284E+02  0.54600916499E+03  0.54650296866E+03  0.00000000000E+00 0.  1.
<mgrwt>
<rscale>  0 0.78970957E+02</rscale>
<asrwt>0</asrwt>
<pdfrwt beam="2">  1        2 0.18548737E+00 0.26850014E+03</pdfrwt>
<pdfrwt beam="1">  1       -3 0.15133898E+00 0.23226849E+02</pdfrwt>
<totfact> 0.41139091E+00</totfact>
</mgrwt>
</event>
<event>
13    1  0.1595792E-008  0.7062671E+02  0.7546771E-02  0.1395845E+00
          2   -1    0    0  503    0  0.00000000000E+00  0.00000000000E+00  0.21848492082E+04  0.21848492082E+04  0.00000000000E+00 0. -1.
          2   -1    0    0  502    0 -0.00000000000E+00 -0.00000000000E+00 -0.43314563113E+03  0.43314563113E+03  0.00000000000E+00 0. -1.
         24    2    1    2    0    0 -0.54619040546E+02 -0.33598231435E+01 -0.55356734183E+01  0.94628932495E+02  0.77003007625E+02 0.  0.
         25    2    1    2    0    0 -0.13446633015E+03 -0.72105806876E+02  0.12475090480E+03  0.23339289103E+03  0.12501604700E+03 0.  0.
         24    2    1    2    0    0  0.19953732787E+03  0.18637382007E+03  0.14559603460E+03  0.31949281906E+03  0.79543133722E+02 0.  0.
        -11    1    5    5    0    0  0.19339537649E+03  0.15291468282E+03  0.14382173672E+03  0.28542838650E+03  0.00000000000E+00 0.  1.
         12    1    5    5    0    0  0.61419513763E+01  0.33459137258E+02  0.17742978760E+01  0.34064432561E+02  0.00000000000E+00 0. -1.
        -13    1    3    3    0    0 -0.55357871630E+02  0.54610653430E+01 -0.33746071035E+02  0.65062389262E+02  0.00000000000E+00 0.  1.
         14    1    3    3    0    0  0.73883108454E+00 -0.88208884865E+01  0.28210397617E+02  0.29566543233E+02  0.00000000000E+00 0. -1.
          5    1    4    4  501    0 -0.14156222944E+03 -0.95330228214E+02  0.97586489080E+02  0.19665434159E+03  0.47000000000E+01 0. -1.
         -5    1    4    4    0  501  0.70958992973E+01  0.23224421338E+02  0.27164415722E+02  0.36738549438E+02  0.47000000000E+01 0. -1.
          1    1    1    2  502    0  0.20486698550E+02 -0.47559475974E+02 -0.23829309533E+03  0.24385489097E+03  0.00000000000E+00 0. -1.
          1    1    1    2  503    0 -0.30938655726E+02 -0.63348714081E+02  0.17251854064E+04  0.17266253057E+04  0.00000000000E+00 0. -1.
<mgrwt>
<rscale>  0 0.60476039E+02</rscale>
<asrwt>0</asrwt>
<pdfrwt beam="1">  1        2 0.32130135E+00 0.70626711E+02</pdfrwt>
<pdfrwt beam="2">  1        2 0.63697888E-01 0.51784250E+02</pdfrwt>
<totfact> 0.93668237E+01</totfact>
</mgrwt>
</event>
<event>
13    1  0.1595792E-008  0.1779197E+03  0.7546771E-02  0.1397273E+00
          2   -1    0    0  502    0  0.00000000000E+00  0.00000000000E+00  0.10538009834E+04  0.10538009834E+04  0.00000000000E+00 0. -1.
          2   -1    0    0  503    0 -0.00000000000E+00 -0.00000000000E+00 -0.14126175558E+04  0.14126175558E+04  0.00000000000E+00 0. -1.
         24    2    1    2    0    0 -0.80216477344E+01  0.61432120988E+02 -0.47558753447E+03  0.48611829841E+03  0.79304758919E+02 0.  0.
         25    2    1    2    0    0  0.16008421127E+03  0.15014111945E+03 -0.49652961877E+03  0.55707912601E+03  0.12500471943E+03 0.  0.
         24    2    1    2    0    0 -0.24610579151E+02 -0.10623943990E+03  0.76389698149E+02  0.15646325907E+03  0.82175825273E+02 0.  0.
        -11    1    3    3    0    0 -0.75136822178E+01  0.57961490001E+02 -0.15723340295E+03  0.16774484418E+03  0.00000000000E+00 0.  1.
         12    1    3    3    0    0 -0.50796551657E+00  0.34706309867E+01 -0.31835413152E+03  0.31837345424E+03  0.00000000000E+00 0. -1.
        -11    1    5    5    0    0 -0.52913720404E+02 -0.56904678415E+02  0.57011155859E+02  0.96375702980E+02  0.00000000000E+00 0.  1.
         12    1    5    5    0    0  0.28303141253E+02 -0.49334761487E+02  0.19378542291E+02  0.60087556092E+02  0.00000000000E+00 0. -1.
          5    1    4    4  501    0  0.94838123212E+02  0.16494075076E+02 -0.13276066763E+03  0.16405428674E+03  0.47000000000E+01 0.  1.
         -5    1    4    4    0  501  0.65246088054E+02  0.13364704437E+03 -0.36376895114E+03  0.39302483928E+03  0.47000000000E+01 0.  1.
          1    1    1    2  502    0 -0.12205967549E+03 -0.85738339661E+02  0.89537667605E+03  0.90771637601E+03  0.00000000000E+00 0. -1.
          1    1    1    2  503    0 -0.53923088916E+01 -0.19595460872E+02 -0.35846579337E+03  0.35904147964E+03  0.00000000000E+00 0. -1.
<mgrwt>
<rscale>  0 0.60133305E+02</rscale>
<asrwt>0</asrwt>
<pdfrwt beam="1">  1        2 0.15497073E+00 0.17791971E+03</pdfrwt>
<pdfrwt beam="2">  1        2 0.20773788E+00 0.20323855E+02</pdfrwt>
<totfact> 0.83053035E+01</totfact>
</mgrwt>
</event>
<event>
13    1  0.1595792E-008  0.6483739E+02  0.7546771E-02  0.1483325E+00
          2   -1    0    0  502    0  0.00000000000E+00  0.00000000000E+00  0.10224271285E+04  0.10224271285E+04  0.00000000000E+00 0. -1.
          2   -1    0    0  503    0 -0.00000000000E+00 -0.00000000000E+00 -0.11369809845E+04  0.11369809845E+04  0.00000000000E+00 0. -1.
         24    2    1    2    0    0  0.61374661881E+02  0.20736746192E+03 -0.66546401767E+03  0.70450065167E+03  0.81918837921E+02 0.  0.
         25    2    1    2    0    0  0.28313412625E+02 -0.22704483915E+03  0.24097078630E+03  0.35502471734E+03  0.12499848698E+03 0.  0.
         24    2    1    2    0    0 -0.21392115895E+02  0.47027545935E+00  0.59570731691E+02  0.10190989888E+03  0.79869341018E+02 0.  0.
        -11    1    5    5    0    0 -0.40121655774E+02 -0.21862468311E+02  0.56407943520E+02  0.72591809971E+02  0.00000000000E+00 0.  1.
         12    1    5    5    0    0  0.18729539879E+02  0.22332743771E+02  0.31627881712E+01  0.29318088912E+02  0.00000000000E+00 0. -1.
        -11    1    3    3    0    0  0.76599610668E+01  0.39761199282E+02 -0.25054060410E+03  0.25379169071E+03  0.00000000000E+00 0.  1.
         12    1    3    3    0    0  0.53714700814E+02  0.16760626264E+03 -0.41492341357E+03  0.45070896096E+03  0.00000000000E+00 0. -1.
          5    1    4    4  501    0  0.15439133542E+00 -0.20864239106E+03  0.24382062014E+03  0.32093964540E+03  0.47000000000E+01 0. -1.
         -5    1    4    4    0  501  0.28159021290E+02 -0.18402448095E+02 -0.28498338387E+01  0.34085071935E+02  0.47000000000E+01 0. -1.
          1    1    1    2  502    0 -0.42019911850E+01  0.29005944246E+02  0.62101084256E+03  0.62170207343E+03  0.00000000000E+00 0. -1.
          1    1    1    2  503    0 -0.64093967426E+02 -0.97988424756E+01 -0.37064219889E+03  0.37627077162E+03  0.00000000000E+00 0. -1.
<mgrwt>
<rscale>  0 0.43592447E+02</rscale>
<asrwt>0</asrwt>
<pdfrwt beam="1">  1        2 0.15035693E+00 0.29308728E+02</pdfrwt>
<pdfrwt beam="2">  1        2 0.16720308E+00 0.64837390E+02</pdfrwt>
<totfact> 0.11936162E+02</totfact>
</mgrwt>
</event>
<event>
13    1  0.1595792E-008  0.2464922E+03  0.7546771E-02  0.1130205E+00
          2   -1    0    0  503    0  0.00000000000E+00  0.00000000000E+00  0.25461441936E+04  0.25461441936E+04  0.00000000000E+00 0. -1.
          2   -1    0    0  502    0 -0.00000000000E+00 -0.00000000000E+00 -0.23108462366E+04  0.23108462366E+04  0.00000000000E+00 0. -1.
         24    2    1    2    0    0  0.25515511194E+03 -0.70000735889E+02 -0.22008993432E+03  0.35348397642E+03  0.80666648747E+02 0.  0.
         25    2    1    2    0    0  0.47633674310E+02 -0.64070455006E+02  0.13951723474E+03  0.20360259105E+03  0.12495985820E+03 0.  0.
         24    2    1    2    0    0 -0.75277943328E+02 -0.21297958048E+03  0.42774675152E+03  0.49038091498E+03  0.80492781562E+02 0.  0.
        -11    1    3    3    0    0  0.82742627204E+01 -0.18909343577E+02 -0.31428443917E+01  0.20878318154E+02  0.00000000000E+00 0.  1.
         12    1    3    3    0    0  0.24688084922E+03 -0.51091392312E+02 -0.21694708993E+03  0.33260565826E+03  0.00000000000E+00 0. -1.
        -11    1    5    5    0    0  0.86684428079E+01 -0.86791948153E+02  0.13496513162E+03  0.16069714035E+03  0.00000000000E+00 0.  1.
         12    1    5    5    0    0 -0.83946386136E+02 -0.12618763233E+03  0.29278161990E+03  0.32968377462E+03  0.00000000000E+00 0. -1.
          5    1    4    4  501    0  0.26489234554E+02 -0.10100683901E+03  0.10900772738E+03  0.15102594381E+03  0.47000000000E+01 0.  1.
         -5    1    4    4    0  501  0.21144439756E+02  0.36936384009E+02  0.30509507352E+02  0.52576647241E+02  0.47000000000E+01 0.  1.
          1    1    1    2  502    0 -0.17410363461E+03  0.10896655198E+03 -0.19472241883E+04  0.19580265127E+04  0.00000000000E+00 0. -1.
          1    1    1    2  503    0 -0.53407208314E+02  0.23808421940E+03  0.18353480933E+04  0.18514964351E+04  0.00000000000E+00 0. -1.
<mgrwt>
<rscale>  0 0.22500548E+03</rscale>
<asrwt>0</asrwt>
<pdfrwt beam="1">  1        2 0.37443297E+00 0.24649217E+03</pdfrwt>
<pdfrwt beam="2">  1        2 0.33983033E+00 0.20539178E+03</pdfrwt>
<totfact> 0.41144843E+00</totfact>
</mgrwt>
</event>
<event>
13    1  0.1595792E-008  0.7650023E+02  0.7546771E-02  0.1417072E+00
          2   -1    0    0  502    0  0.00000000000E+00  0.00000000000E+00  0.18985926975E+04  0.18985926975E+04  0.00000000000E+00 0. -1.
          2   -1    0    0  503    0 -0.00000000000E+00 -0.00000000000E+00 -0.10235380563E+04  0.10235380563E+04  0.00000000000E+00 0. -1.
         24    2    1    2    0    0 -0.16832288266E+03  0.95062558463E+02 -0.12956260297E+03  0.24623026172E+03  0.80457385309E+02 0.  0.
         25    2    1    2    0    0  0.29091415335E+03 -0.14455834610E+03  0.15721040927E+03  0.38192760135E+03  0.12500167937E+03 0.  0.
         24    2    1    2    0    0 -0.15844414625E+02  0.22516765394E+01  0.28194669435E+03  0.29477244238E+03  0.84502892321E+02 0.  0.
        -11    1    5    5    0    0 -0.37125864320E+02  0.30150836780E+02  0.19981465616E+03  0.20545875396E+03  0.00000000000E+00 0.  1.
         12    1    5    5    0    0  0.21281449695E+02 -0.27899160240E+02  0.82132038190E+02  0.89313688427E+02  0.00000000000E+00 0. -1.
        -11    1    3    3    0    0 -0.75365714284E+02  0.88179266815E+02 -0.76857193359E+02  0.13914956758E+03  0.00000000000E+00 0.  1.
         12    1    3    3    0    0 -0.92957168379E+02  0.68832916482E+01 -0.52705409613E+02  0.10708069415E+03  0.00000000000E+00 0. -1.
          5    1    4    4  501    0  0.17527972121E+03 -0.32747427267E+02  0.12500828773E+03  0.21781766839E+03  0.47000000000E+01 0.  1.
         -5    1    4    4    0  501  0.11563443213E+03 -0.11181091883E+03  0.32202121541E+02  0.16410993296E+03  0.47000000000E+01 0.  1.
          1    1    1    2  502    0 -0.35976899214E+02  0.18545341190E+02  0.12799756430E+04  0.12806154433E+04  0.00000000000E+00 0. -1.
          1    1    1    2  503    0 -0.70769956845E+02  0.28698769906E+02 -0.71451550246E+03  0.71858500502E+03  0.00000000000E+00 0. -1.
<mgrwt>
<rscale>  0 0.55645177E+02</rscale>
<asrwt>0</asrwt>
<pdfrwt beam="1">  1        2 0.27920481E+00 0.40475511E+02</pdfrwt>
<pdfrwt beam="2">  1        2 0.15052030E+00 0.76500227E+02</pdfrwt>
<totfact> 0.50606873E+01</totfact>
</mgrwt>
</event>
<event>
13    1  0.1595792E-008  0.5695177E+02  0.7546771E-02  0.1411845E+00
          2   -1    0    0  503    0  0.00000000000E+00  0.00000000000E+00  0.99059057698E+03  0.99059057698E+03  0.00000000000E+00 0. -1.
          2   -1    0    0  502    0 -0.00000000000E+00 -0.00000000000E+00 -0.13856010977E+04  0.13856010977E+04  0.00000000000E+00 0. -1.
         24    2    1    2    0    0  0.10761703863E+03  0.17307920136E+02 -0.63570322608E+03  0.64996416365E+03  0.80335740986E+02 0.  0.
         25    2    1    2    0    0 -0.95659285265E+02  0.21938927191E+02  0.44080360706E+02  0.16492846542E+03  0.12500522038E+03 0.  0.
         24    2    1    2    0    0  0.37907769593E+02  0.53480359525E+01  0.49512337742E+03  0.50311814938E+03  0.80716249192E+02 0.  0.
        -11    1    5    5    0    0  0.36350366089E+02  0.31198319681E+02  0.16054951817E+03  0.16754352285E+03  0.00000000000E+00 0.  1.
         12    1    5    5    0    0  0.15574035038E+01 -0.25850283728E+02  0.33457385925E+03  0.33557462653E+03  0.00000000000E+00 0. -1.
        -13    1    3    3    0    0  0.49222908955E+02  0.23417558688E+02 -0.13144293760E+03  0.14229730379E+03  0.00000000000E+00 0.  1.
         14    1    3    3    0    0  0.58394129672E+02 -0.61096385515E+01 -0.50426028848E+03  0.50766685986E+03  0.00000000000E+00 0. -1.
          5    1    4    4  501    0 -0.96413695001E+02 -0.29708425767E+02  0.71332477263E+01  0.10124803390E+03  0.47000000000E+01 0.  1.
         -5    1    4    4    0  501  0.75440973506E+00  0.51647352958E+02  0.36947112979E+02  0.63680431524E+02  0.47000000000E+01 0.  1.
          1    1    1    2  502    0  0.59224486243E+01 -0.56306605988E+02 -0.67501541957E+03  0.67738565524E+03  0.00000000000E+00 0. -1.
          1    1    1    2  503    0 -0.55787971578E+02  0.11711722708E+02  0.37650438684E+03  0.38079524095E+03  0.00000000000E+00 0. -1.
<mgrwt>
<rscale>  0 0.56784248E+02</rscale>
<asrwt>0</asrwt>
<pdfrwt beam="1">  1        2 0.14567509E+00 0.56951772E+02</pdfrwt>
<pdfrwt beam="2">  1        2 0.20376487E+00 0.56617217E+02</pdfrwt>
<totfact> 0.90600299E+01</totfact>
</mgrwt>
</event>
<event>
13    1  0.1595792E-008  0.1360228E+03  0.7546771E-02  0.1320493E+00
          2   -1    0    0  503    0  0.00000000000E+00  0.00000000000E+00  0.19199811502E+04  0.19199811502E+04  0.00000000000E+00 0. -1.
          2   -1    0    0  502    0 -0.00000000000E+00 -0.00000000000E+00 -0.23184029656E+04  0.23184029656E+04  0.00000000000E+00 0. -1.
         24    2    1    2    0    0 -0.39107708628E+02  0.13042763288E+03 -0.16198064778E+03  0.22635714521E+03  0.80368194210E+02 0.  0.
         25    2    1    2    0    0  0.18317520201E+03 -0.85123352058E+02 -0.44964235403E+02  0.24175080319E+03  0.12499011434E+03 0.  0.
         24    2    1    2    0    0 -0.56430290721E+02  0.22568169988E+01  0.24406199987E+03  0.26297162994E+03  0.79989670815E+02 0.  0.
        -11    1    5    5    0    0 -0.12213929469E+02  0.38242646971E+02  0.85047655239E+02  0.94046710639E+02  0.00000000000E+00 0.  1.
         12    1    5    5    0    0 -0.44216361252E+02 -0.35985829972E+02  0.15901434463E+03  0.16892491930E+03  0.00000000000E+00 0. -1.
        -11    1    3    3    0    0 -0.10890093036E+02 -0.45408254731E+01 -0.41844918170E+02  0.43476549989E+02  0.00000000000E+00 0.  1.
         12    1    3    3    0    0 -0.28217615592E+02  0.13496845836E+03 -0.12013572961E+03  0.18288059522E+03  0.00000000000E+00 0. -1.
          5    1    4    4  501    0  0.19467526711E+03 -0.95905015508E+02 -0.29299847143E+02  0.21903607617E+03  0.47000000000E+01 0.  1.
         -5    1    4    4    0  501 -0.11500065100E+02  0.10781663450E+02 -0.15664388260E+02  0.22714727020E+02  0.47000000000E+01 0.  1.
          1    1    1    2  502    0 -0.13335517001E+03 -0.25503385371E+02 -0.19686635283E+04  0.19733398368E+04  0.00000000000E+00 0. -1.
          1    1    1    2  503    0  0.45717967349E+02 -0.22057712455E+02  0.15331245962E+04  0.15339647006E+04  0.00000000000E+00 0. -1.
<mgrwt>
<rscale>  0 0.83094216E+02</rscale>
<asrwt>0</asrwt>
<pdfrwt beam="1">  1        2 0.28235017E+00 0.50760962E+02</pdfrwt>
<pdfrwt beam="2">  1        2 0.34094161E+00 0.13602281E+03</pdfrwt>
<totfact> 0.10361816E+01</totfact>
</mgrwt>
</event>
<event>
13    1  0.1595792E-008  0.9541897E+02  0.7546771E-02  0.1334453E+00
         -1   -1    0    0    0  501 -0.00000000000E+00  0.00000000000E+00  0.23876884692E+03  0.23876884692E+03  0.00000000000E+00 0.  1.
          2   -1    0    0  503    0  0.00000000000E+00 -0.00000000000E+00 -0.93906879038E+03  0.93906879038E+03  0.00000000000E+00 0. -1.
         24    2    1    2    0    0 -0.78894791895E+02  0.10870856690E+02  0.12746741929E+02  0.12422989685E+03  0.94488222162E+02 0.  0.
         25    2    1    2    0    0  0.51980453581E+02 -0.11455403012E+03 -0.14739251441E+03  0.23059379507E+03  0.12499740657E+03 0.  0.
         24    2    1    2    0    0  0.82773364659E+02 -0.30930085444E+01 -0.24587634274E+03  0.27123840822E+03  0.79082877890E+02 0.  0.
        -11    1    3    3    0    0  0.14359732705E+02 -0.19646858774E+02 -0.40850176418E+01  0.24675663156E+02  0.00000000000E+00 0.  1.
         12    1    3    3    0    0 -0.93254524600E+02  0.30517715464E+02  0.16831759571E+02  0.99554233690E+02  0.00000000000E+00 0. -1.
        -13    1    5    5    0    0  0.45686999410E+01  0.93586324939E+01 -0.13270213072E+03  0.13311015182E+03  0.00000000000E+00 0.  1.
         14    1    5    5    0    0  0.78204664718E+02 -0.12451641038E+02 -0.11317421202E+03  0.13812825639E+03  0.00000000000E+00 0. -1.
          5    1    4    4  502    0  0.61250905094E+02 -0.13529120371E+03 -0.10391955112E+03  0.18131945919E+03  0.47000000000E+01 0. -1.
         -5    1    4    4    0  502 -0.92704515127E+01  0.20737173589E+02 -0.43472963283E+02  0.49274335879E+02  0.47000000000E+01 0. -1.
          1    1    1    2  503    0 -0.81876551311E+02  0.48337685751E+02 -0.42123689421E+03  0.43183425357E+03  0.00000000000E+00 0. -1.
         -2    1    1    2    0  501  0.26017524965E+02  0.58438496222E+02  0.10145906596E+03  0.11994128360E+03  0.00000000000E+00 0.  1.
<mgrwt>
<rscale>  0 0.78126874E+02</rscale>
<asrwt>0</asrwt>
<pdfrwt beam="2">  1        2 0.13809835E+00 0.95418965E+02</pdfrwt>
<pdfrwt beam="1">  1       -1 0.35113066E-01 0.63968504E+02</pdfrwt>
<totfact> 0.28137558E+02</totfact>
</mgrwt>
</event>
<event>
13    1  0.1595792E-008  0.1323452E+03  0.7546771E-02  0.1237554E+00
          2   -1    0    0  503    0  0.00000000000E+00  0.00000000000E+00  0.35029101632E+04  0.35029101632E+04  0.00000000000E+00 0. -1.
         -1   -1    0    0    0  501 -0.00000000000E+00 -0.00000000000E+00 -0.36958426273E+03  0.36958426273E+03  0.00000000000E+00 0.  1.
         24    2    1    2    0    0 -0.40705890869E+02 -0.11805879208E+02  0.11446306086E+03  0.14277601855E+03  0.74073280178E+02 0.  0.
         25    2    1    2    0    0  0.59633548095E+02 -0.15154193092E+03  0.10846798954E+03  0.23218548681E+03  0.12499471447E+03 0.  0.
         24    2    1    2    0    0 -0.26226326056E+02  0.35614031533E+02  0.43073785507E+03  0.44041250123E+03  0.80448070339E+02 0.  0.
        -11    1    3    3    0    0 -0.24404019797E+02  0.19225718667E+02  0.10075635825E+02  0.32660417600E+02  0.00000000000E+00 0.  1.
         12    1    3    3    0    0 -0.16301871072E+02 -0.31031597875E+02  0.10438742504E+03  0.11011560095E+03  0.00000000000E+00 0. -1.
        -11    1    5    5    0    0  0.39900579023E+01 -0.14736481654E+02  0.24804490553E+03  0.24851430465E+03  0.00000000000E+00 0.  1.
         12    1    5    5    0    0 -0.30216383959E+02  0.50350513187E+02  0.18269294954E+03  0.19189819658E+03  0.00000000000E+00 0. -1.
          5    1    4    4  502    0 -0.30390900472E+02 -0.81850564775E+02  0.69726979748E+02  0.11183498330E+03  0.47000000000E+01 0.  1.
         -5    1    4    4    0  502  0.90024448567E+02 -0.69691366141E+02  0.38741009793E+02  0.12035050351E+03  0.47000000000E+01 0.  1.
          1    1    1    2  503    0 -0.16215424455E+03  0.44065591337E+02  0.27346073688E+04  0.27397651791E+04  0.00000000000E+00 0. -1.
         -2    1    1    2    0  501  0.16945291338E+03  0.83668187253E+02 -0.25495037377E+03  0.31735524023E+03  0.00000000000E+00 0.  1.
<mgrwt>
<rscale>  0 0.12342350E+03</rscale>
<asrwt>0</asrwt>
<pdfrwt beam="1">  1        2 0.51513383E+00 0.13234515E+03</pdfrwt>
<pdfrwt beam="2">  1       -1 0.54350629E-01 0.11510327E+03</pdfrwt>
<totfact> 0.58873916E+00</totfact>
</mgrwt>
</event>
<event>
13    1  0.1595792E-008  0.2002904E+03  0.7546771E-02  0.1367176E+00
          2   -1    0    0  502    0  0.00000000000E+00  0.00000000000E+00  0.14553184344E+04  0.14553184344E+04  0.00000000000E+00 0. -1.
          2   -1    0    0  503    0 -0.00000000000E+00 -0.00000000000E+00 -0.17968578196E+04  0.17968578196E+04  0.00000000000E+00 0. -1.
         24    2    1    2    0    0 -0.78614137955E+02 -0.28829095785E+01 -0.18675630093E+03  0.21844929831E+03  0.81570130209E+02 0.  0.
         25    2    1    2    0    0  0.21084952485E+03  0.12537261169E+03 -0.55308830492E+03  0.61781835759E+03  0.12496814014E+03 0.  0.
         24    2    1    2    0    0  0.63046602810E+02 -0.15054632063E+03  0.42527004052E+02  0.18702674185E+03  0.80816998918E+02 0.  0.
        -13    1    3    3    0    0 -0.55358410015E+02  0.30807614731E+02 -0.68489727722E+02  0.93297939357E+02  0.00000000000E+00 0.  1.
         14    1    3    3    0    0 -0.23255727939E+02 -0.33690524309E+02 -0.11826657321E+03  0.12515135896E+03  0.00000000000E+00 0. -1.
        -13    1    5    5    0    0  0.37804069711E+02 -0.12550871264E+03 -0.66954947491E+00  0.13108025378E+03  0.00000000000E+00 0.  1.
         14    1    5    5    0    0  0.25242533099E+02 -0.25037607991E+02  0.43196553527E+02  0.55946488073E+02  0.00000000000E+00 0. -1.
          5    1    4    4  501    0  0.13036769446E+03  0.11287159929E+03 -0.47308474159E+03  0.50355436292E+03  0.47000000000E+01 0. -1.
         -5    1    4    4    0  501  0.80481830394E+02  0.12501012402E+02 -0.80003563325E+02  0.11426399468E+03  0.47000000000E+01 0. -1.
          1    1    1    2  502    0 -0.19404268273E+03  0.51081569759E+02  0.12843974337E+04  0.12999764064E+04  0.00000000000E+00 0. -1.
          1    1    1    2  503    0 -0.12393069774E+01 -0.23024951247E+02 -0.92861921712E+03  0.92890544980E+03  0.00000000000E+00 0. -1.
<mgrwt>
<rscale>  0 0.67958459E+02</rscale>
<asrwt>0</asrwt>
<pdfrwt beam="1">  1        2 0.21401742E+00 0.20029041E+03</pdfrwt>
<pdfrwt beam="2">  1        2 0.26424379E+00 0.23058280E+02</pdfrwt>
<totfact> 0.33260943E+01</totfact>
</mgrwt>
</event>
<event>
13    1  0.1595792E-008  0.7356573E+02  0.7546771E-02  0.1420663E+00
          2   -1    0    0  502    0  0.00000000000E+00  0.00000000000E+00  0.16103177672E+04  0.16103177672E+04  0.00000000000E+00 0. -1.
          2   -1    0    0  503    0 -0.00000000000E+00 -0.00000000000E+00 -0.22045034859E+04  0.22045034859E+04  0.00000000000E+00 0. -1.
         24    2    1    2    0    0 -0.11561653637E+03  0.70013079009E+02 -0.39022108645E+03  0.42084735060E+03  0.81061590653E+02 0.  0.
         25    2    1    2    0    0  0.12151036978E+03  0.87220519099E+02 -0.13534226272E+03  0.23729916728E+03  0.12498471025E+03 0.  0.
         24    2    1    2    0    0 -0.23424086242E+02 -0.88859975360E+02 -0.16627574944E+03  0.20661785481E+03  0.81231336564E+02 0.  0.
        -11    1    3    3    0    0 -0.11843888133E+03  0.37295719493E+02 -0.32264936941E+03  0.34571860650E+03  0.00000000000E+00 0.  1.
         12    1    3    3    0    0  0.28223449634E+01  0.32717359516E+02 -0.67571717043E+02  0.75128744093E+02  0.00000000000E+00 0. -1.
        -13    1    5    5    0    0  0.14784364909E+01 -0.88903795536E+02 -0.15623962488E+03  0.17976899348E+03  0.00000000000E+00 0.  1.
         14    1    5    5    0    0 -0.24902522733E+02  0.43820175967E-01 -0.10036124557E+02  0.26848861331E+02  0.00000000000E+00 0. -1.
          5    1    4    4  501    0  0.51109799087E+02  0.60804286581E+02 -0.14083503905E+03  0.16175899064E+03  0.47000000000E+01 0.  1.
         -5    1    4    4    0  501  0.70400570696E+02  0.26416232518E+02  0.54927763295E+01  0.75540176638E+02  0.47000000000E+01 0.  1.
          1    1    1    2  502    0  0.54070624477E+02 -0.49906764765E+02  0.15226726892E+04  0.15244495518E+04  0.00000000000E+00 0. -1.
          1    1    1    2  503    0 -0.36540371646E+02 -0.18466857983E+02 -0.14250193092E+04  0.14256073286E+04  0.00000000000E+00 0. -1.
<mgrwt>
<rscale>  0 0.54880840E+02</rscale>
<asrwt>0</asrwt>
<pdfrwt beam="1">  1        2 0.23681144E+00 0.73565725E+02</pdfrwt>
<pdfrwt beam="2">  1        2 0.32419169E+00 0.40941710E+02</pdfrwt>
<totfact> 0.18369722E+01</totfact>
</mgrwt>
</event>
<event>
13    1  0.1595792E-008  0.6115133E+02  0.7546771E-02  0.1421651E+00
          2   -1    0    0  502    0  0.00000000000E+00  0.00000000000E+00  0.50288359370E+03  0.50288359370E+03  0.00000000000E+00 0. -1.
          2   -1    0    0  503    0 -0.00000000000E+00 -0.00000000000E+00 -0.66731539244E+03  0.66731539244E+03  0.00000000000E+00 0. -1.
         24    2    1    2    0    0  0.21000822986E+02 -0.41128815546E+02 -0.16245463810E+03  0.18656929301E+03  0.79271543582E+02 0.  0.
         25    2    1    2    0    0 -0.35952745439E+02  0.87006862736E+02 -0.94181030145E+02  0.18265523608E+03  0.12502029739E+03 0.  0.
         24    2    1    2    0    0 -0.61492746039E+02 -0.16197320319E+02  0.89632654910E+02  0.14896027119E+03  0.10055564909E+03 0.  0.
        -11    1    3    3    0    0  0.16811187294E+02  0.22224937912E+02 -0.41970449680E+02  0.50379385960E+02  0.00000000000E+00 0.  1.
         12    1    3    3    0    0  0.41896356922E+01 -0.63353753458E+02 -0.12048418842E+03  0.13618990705E+03  0.00000000000E+00 0. -1.
        -11    1    5    5    0    0  0.26627662423E+02 -0.13461954645E+02  0.14730589442E+02  0.33275319597E+02  0.00000000000E+00 0.  1.
         12    1    5    5    0    0 -0.88120408463E+02 -0.27353656743E+01  0.74902065468E+02  0.11568495159E+03  0.00000000000E+00 0. -1.
          5    1    4    4  501    0  0.44460495779E+02  0.50060162796E+02 -0.49581247359E+02  0.83445465268E+02  0.47000000000E+01 0.  1.
         -5    1    4    4    0  501 -0.80413241218E+02  0.36946699941E+02 -0.44599782786E+02  0.99209770811E+02  0.47000000000E+01 0.  1.
          1    1    1    2  502    0  0.43714379579E+02  0.21872928938E+02  0.32256401873E+03  0.32624671367E+03  0.00000000000E+00 0. -1.
          1    1    1    2  503    0  0.32730288913E+02 -0.51553655810E+02 -0.31999280414E+03  0.32576747220E+03  0.00000000000E+00 0. -1.
<mgrwt>
<rscale>  0 0.54673125E+02</rscale>
<asrwt>0</asrwt>
<pdfrwt beam="1">  1        2 0.73953470E-01 0.48881203E+02</pdfrwt>
<pdfrwt beam="2">  1        2 0.98134616E-01 0.61151330E+02</pdfrwt>
<totfact> 0.50352821E+02</totfact>
</mgrwt>
</event>
<event>
13    1  0.1595792E-008  0.5262359E+02  0.7546771E-02  0.1549178E+00
          2   -1    0    0  502    0  0.00000000000E+00  0.00000000000E+00  0.59356658417E+03  0.59356658417E+03  0.00000000000E+00 0. -1.
          2   -1    0    0  503    0 -0.00000000000E+00 -0.00000000000E+00 -0.31970776839E+04  0.31970776839E+04  0.00000000000E+00 0. -1.
         24    2    1    2    0    0  0.12953075783E+02  0.30208659410E+02 -0.10719817464E+03  0.13712660595E+03  0.78942460925E+02 0.  0.
         25    2    1    2    0    0  0.31628216933E+02 -0.15250640120E+02 -0.33651999908E+03  0.36070525837E+03  0.12501858863E+03 0.  0.
         24    2    1    2    0    0 -0.31088384070E+02  0.12317147925E+02  0.90193538314E+02  0.12486946389E+03  0.79619777069E+02 0.  0.
        -11    1    5    5    0    0  0.14509735127E+02  0.31355604184E+02  0.23169825861E+02  0.41599845645E+02  0.00000000000E+00 0.  1.
         12    1    5    5    0    0 -0.45598119197E+02 -0.19038456259E+02  0.67023712453E+02  0.83269618241E+02  0.00000000000E+00 0. -1.
        -13    1    3    3    0    0  0.26546157026E+02 -0.59141772079E+01 -0.91507042105E+02  0.95463158860E+02  0.00000000000E+00 0.  1.
         14    1    3    3    0    0 -0.13593081243E+02  0.36122836618E+02 -0.15691132537E+02  0.41663447088E+02  0.00000000000E+00 0. -1.
          5    1    4    4  501    0  0.15784403614E+02  0.19034499722E+02 -0.33778755234E+01  0.25396055208E+02  0.47000000000E+01 0. -1.
         -5    1    4    4    0  501  0.15843813319E+02 -0.34285139842E+02 -0.33314212356E+03  0.33530920316E+03  0.47000000000E+01 0. -1.
          1    1    1    2  502    0 -0.30695568494E+02 -0.42829873525E+02  0.45741601765E+03  0.46044112457E+03  0.00000000000E+00 0. -1.
          1    1    1    2  503    0  0.17202659849E+02  0.15554706310E+02 -0.27074024820E+04  0.27075018153E+04  0.00000000000E+00 0. -1.
<mgrwt>
<rscale>  0 0.34935075E+02</rscale>
<asrwt>0</asrwt>
<pdfrwt beam="1">  1        2 0.87289206E-01 0.52623593E+02</pdfrwt>
<pdfrwt beam="2">  1        2 0.47015847E+00 0.23192249E+02</pdfrwt>
<totfact> 0.25576271E+01</totfact>
</mgrwt>
</event>
<event>
13    1  0.1595792E-008  0.6537166E+02  0.7546771E-02  0.1441793E+00
          2   -1    0    0  502    0  0.00000000000E+00  0.00000000000E+00  0.89312456707E+03  0.89312456707E+03  0.00000000000E+00 0. -1.
          2   -1    0    0  503    0 -0.00000000000E+00 -0.00000000000E+00 -0.57183048920E+03  0.57183048920E+03  0.00000000000E+00 0. -1.
         24    2    1    2    0    0 -0.23227280499E+02  0.16733880059E+01 -0.54404329652E+02  0.98395506190E+02  0.78610036043E+02 0.  0.
         25    2    1    2    0    0  0.10307451550E+03  0.29202799490E+02  0.21823560698E+03  0.27336543916E+03  0.12499889571E+03 0.  0.
         24    2    1    2    0    0  0.12927960536E+02  0.14984860891E+02  0.22444123482E+03  0.23987109808E+03  0.82295793242E+02 0.  0.
        -13    1    3    3    0    0  0.15618935391E+02  0.64688526432E+01  0.12402415273E+02  0.20967048001E+02  0.00000000000E+00 0.  1.
         14    1    3    3    0    0 -0.38846215890E+02 -0.47954646373E+01 -0.66806744925E+02  0.77428458189E+02  0.00000000000E+00 0. -1.
        -13    1    5    5    0    0 -0.17636746311E+02  0.24265267850E+02  0.28615473013E+02  0.41457247135E+02  0.00000000000E+00 0.  1.
         14    1    5    5    0    0  0.30564706847E+02 -0.92804069587E+01  0.19582576181E+03  0.19841385094E+03  0.00000000000E+00 0. -1.
          5    1    4    4  501    0  0.98139378713E+02  0.26592206469E+02  0.23444570252E+03  0.25558826367E+03  0.47000000000E+01 0. -1.
         -5    1    4    4    0  501  0.49351367878E+01  0.26105930216E+01 -0.16210095534E+02  0.17777175486E+02  0.47000000000E+01 0. -1.
          1    1    1    2  502    0 -0.31605627306E+02 -0.23299045342E+02  0.38987175114E+03  0.39184402959E+03  0.00000000000E+00 0. -1.
          1    1    1    2  503    0 -0.61169568232E+02 -0.22562003045E+02 -0.45685018543E+03  0.46147898325E+03  0.00000000000E+00 0. -1.
<mgrwt>
<rscale>  0 0.50663950E+02</rscale>
<asrwt>0</asrwt>
<pdfrwt beam="1">  1        2 0.13134185E+00 0.39265267E+02</pdfrwt>
<pdfrwt beam="2">  1        2 0.84092718E-01 0.65371663E+02</pdfrwt>
<totfact> 0.31725351E+02</totfact>
</mgrwt>
</event>
<event>
13    1  0.1595792E-008  0.5977516E+02  0.7546771E-02  0.1543864E+00
          2   -1    0    0  503    0  0.00000000000E+00  0.00000000000E+00  0.30145572322E+03  0.30145572322E+03  0.00000000000E+00 0. -1.
          2   -1    0    0  502    0 -0.00000000000E+00 -0.00000000000E+00 -0.35586035713E+04  0.35586035713E+04  0.00000000000E+00 0. -1.
         24    2    1    2    0    0  0.11187248395E+03  0.11782173568E+03 -0.32233638897E+04  0.32285268291E+04  0.83146298372E+02 0.  0.
         25    2    1    2    0    0 -0.12889973665E+03 -0.66381412901E+02  0.13296999583E+03  0.23308231945E+03  0.12499885504E+03 0.  0.
         24    2    1    2    0    0 -0.12857601431E+02  0.10309239174E+02 -0.24691372801E+01  0.79568990157E+02  0.77804429365E+02 0.  0.
        -11    1    3    3    0    0 -0.36561736577E+00  0.31250250514E+02 -0.27742050650E+03  0.27917530202E+03  0.00000000000E+00 0.  1.
         12    1    3    3    0    0  0.11223810131E+03  0.86571485162E+02 -0.29459433832E+04  0.29493515271E+04  0.00000000000E+00 0. -1.
        -13    1    5    5    0    0 -0.36260071567E+02  0.10077914048E+01  0.23637324978E+02  0.43295860837E+02  0.00000000000E+00 0.  1.
         14    1    5    5    0    0  0.23402470135E+02  0.93014477693E+01 -0.26106462258E+02  0.36273129320E+02  0.00000000000E+00 0. -1.
          5    1    4    4  501    0 -0.13883886529E+03 -0.73005876277E+02  0.75415719918E+02  0.17411406978E+03  0.47000000000E+01 0.  1.
         -5    1    4    4    0  501  0.99391286349E+01  0.66244633758E+01  0.57554275917E+02  0.58968249672E+02  0.47000000000E+01 0.  1.
          1    1    1    2  502    0  0.89339371982E+01 -0.59006557416E+02 -0.23635727390E+03  0.24377520378E+03  0.00000000000E+00 0. -1.
          1    1    1    2  503    0  0.20950916935E+02 -0.27430045330E+01  0.72072456889E+02  0.75105952069E+02  0.00000000000E+00 0. -1.
<mgrwt>
<rscale>  0 0.35539165E+02</rscale>
<asrwt>0</asrwt>
<pdfrwt beam="1">  1        2 0.44331725E-01 0.21129718E+02</pdfrwt>
<pdfrwt beam="2">  1        2 0.52332404E+00 0.59775159E+02</pdfrwt>
<totfact> 0.26615641E+01</totfact>
</mgrwt>
</event>
<event>
13    1  0.1595792E-008  0.1907691E+03  0.7546771E-02  0.1178781E+00
          2   -1    0    0  502    0  0.00000000000E+00  0.00000000000E+00  0.94282819618E+03  0.94282819618E+03  0.00000000000E+00 0. -1.
          4   -1    0    0  503    0 -0.00000000000E+00 -0.00000000000E+00 -0.17059890036E+04  0.17059890036E+04  0.00000000000E+00 0. -1.
         24    2    1    2    0    0 -0.13760112565E+03  0.37725753733E+02 -0.33800298958E+03  0.37532701652E+03  0.79164677035E+02 0.  0.
         25    2    1    2    0    0  0.14516016682E+03 -0.54889124949E+02 -0.14133560273E+03  0.24430710444E+03  0.12500367440E+03 0.  0.
         24    2    1    2    0    0 -0.49292691956E+02 -0.99725319663E+02 -0.13278899382E+02  0.13585788912E+03  0.76851337035E+02 0.  0.
        -11    1    3    3    0    0 -0.29887541233E+02  0.44153864604E+02 -0.14037151414E+03  0.15015655451E+03  0.00000000000E+00 0.  1.
         12    1    3    3    0    0 -0.10771358442E+03 -0.64281108708E+01 -0.19763147544E+03  0.22517046201E+03  0.00000000000E+00 0. -1.
        -11    1    5    5    0    0  0.74900407950E+01 -0.16342498521E+02 -0.28639482489E+02  0.33814167537E+02  0.00000000000E+00 0.  1.
         12    1    5    5    0    0 -0.56782732751E+02 -0.83382821141E+02  0.15360583107E+02  0.10204372158E+03  0.00000000000E+00 0. -1.
          5    1    4    4  501    0  0.11225334378E+03 -0.67142084960E+02 -0.39852584321E+02  0.13681809544E+03  0.47000000000E+01 0. -1.
         -5    1    4    4    0  501  0.32906823040E+02  0.12252960011E+02 -0.10148301841E+03  0.10748900900E+03  0.47000000000E+01 0. -1.
          1    1    1    2  502    0  0.13264830582E+03 -0.57260642326E+02  0.79591573896E+03  0.80892287502E+03  0.00000000000E+00 0. -1.
          3    1    1    2  503    0 -0.90914655031E+02  0.17414933321E+03 -0.10664590547E+04  0.10844023147E+04  0.00000000000E+00 0. -1.
<mgrwt>
<rscale>  0 0.16910853E+03</rscale>
<asrwt>0</asrwt>
<pdfrwt beam="1">  1        2 0.13865121E+00 0.14990736E+03</pdfrwt>
<pdfrwt beam="2">  1        4 0.25088073E+00 0.19076912E+03</pdfrwt>
<totfact> 0.11732954E+00</totfact>
</mgrwt>
</event>
<event>
13    1  0.1595792E-008  0.7572318E+02  0.7546771E-02  0.1356654E+00
          2   -1    0    0  503    0  0.00000000000E+00  0.00000000000E+00  0.11114163588E+04  0.11114163588E+04  0.00000000000E+00 0. -1.
          2   -1    0    0  502    0 -0.00000000000E+00 -0.00000000000E+00 -0.20267747348E+04  0.20267747348E+04  0.00000000000E+00 0. -1.
         24    2    1    2    0    0 -0.45343627516E+02  0.40436210459E+02 -0.20855631161E+03  0.23185590441E+03  0.81057347752E+02 0.  0.
         25    2    1    2    0    0  0.10116326553E+03 -0.27367628659E+02  0.98558570391E+02  0.19058240360E+03  0.12499946949E+03 0.  0.
         24    2    1    2    0    0 -0.73407859481E+02  0.12031420936E+02  0.24610959864E+02  0.11228907934E+03  0.80434253089E+02 0.  0.
        -11    1    5    5    0    0 -0.55558284321E+02 -0.30340075955E+02  0.10297380730E+02  0.64134851801E+02  0.00000000000E+00 0.  1.
         12    1    5    5    0    0 -0.17849575160E+02  0.42371496891E+02  0.14313579134E+02  0.48154227538E+02  0.00000000000E+00 0. -1.
        -11    1    3    3    0    0  0.21694379957E+02  0.19483116461E+02 -0.83234369723E+02  0.88194094201E+02  0.00000000000E+00 0.  1.
         12    1    3    3    0    0 -0.67038007473E+02  0.20953093998E+02 -0.12532194189E+03  0.14366181021E+03  0.00000000000E+00 0. -1.
          5    1    4    4  501    0 -0.19054949060E+02  0.90220324417E+01 -0.10641125969E+02  0.24079279785E+02  0.47000000000E+01 0.  1.
         -5    1    4    4    0  501  0.12021821459E+03 -0.36389661101E+02  0.10919969636E+03  0.16650312381E+03  0.47000000000E+01 0.  1.
          1    1    1    2  502    0 -0.33041679876E+02 -0.68386608244E+02 -0.17146248503E+04  0.17163061667E+04  0.00000000000E+00 0. -1.
          1    1    1    2  503    0  0.50629901341E+02  0.43286605509E+02  0.88465325570E+03  0.88715753954E+03  0.00000000000E+00 0. -1.
<mgrwt>
<rscale>  0 0.71021468E+02</rscale>
<asrwt>0</asrwt>
<pdfrwt beam="1">  1        2 0.16344358E+00 0.66611689E+02</pdfrwt>
<pdfrwt beam="2">  1        2 0.29805511E+00 0.75723179E+02</pdfrwt>
<totfact> 0.37115605E+01</totfact>
</mgrwt>
</event>
<event>
13    1  0.1595792E-008  0.1577404E+03  0.7546771E-02  0.1271458E+00
          2   -1    0    0  503    0  0.00000000000E+00  0.00000000000E+00  0.37552331222E+04  0.37552331222E+04  0.00000000000E+00 0. -1.
          2   -1    0    0  502    0 -0.00000000000E+00 -0.00000000000E+00 -0.19417641715E+04  0.19417641715E+04  0.00000000000E+00 0. -1.
         24    2    1    2    0    0 -0.53875793864E+02  0.59230411499E+02 -0.28717662120E+03  0.30863743995E+03  0.79848699193E+02 0.  0.
         25    2    1    2    0    0  0.26708845503E+03 -0.59744260289E+02 -0.28305646938E+02  0.30221033211E+03  0.12499702291E+03 0.  0.
         24    2    1    2    0    0 -0.27473743876E+02 -0.33905402643E+02  0.64364460018E+03  0.65053454630E+03  0.83740322767E+02 0.  0.
        -11    1    5    5    0    0 -0.19067321738E+02  0.26925275456E+02  0.23245432834E+03  0.23478404541E+03  0.00000000000E+00 0.  1.
         12    1    5    5    0    0 -0.84064221377E+01 -0.60830678099E+02  0.41119027184E+03  0.41575050088E+03  0.00000000000E+00 0. -1.
        -11    1    3    3    0    0  0.17626580559E+02 -0.14492890560E+01 -0.29132986787E+02  0.34081192762E+02  0.00000000000E+00 0.  1.
         12    1    3    3    0    0 -0.71502374423E+02  0.60679700555E+02 -0.25804363442E+03  0.27455624719E+03  0.00000000000E+00 0. -1.
          5    1    4    4  501    0  0.58680842676E+02 -0.69862334477E+02 -0.18900058639E+02  0.93292493226E+02  0.47000000000E+01 0.  1.
         -5    1    4    4    0  501  0.20840761235E+03  0.10118074188E+02 -0.94055882996E+01  0.20891783888E+03  0.47000000000E+01 0.  1.
          1    1    1    2  502    0 -0.15746714087E+03 -0.28518463912E+02 -0.14704103115E+04  0.14790928596E+04  0.00000000000E+00 0. -1.
          1    1    1    2  503    0 -0.28271776420E+02  0.62937715345E+02  0.29557169302E+04  0.29565221157E+04  0.00000000000E+00 0. -1.
<mgrwt>
<rscale>  0 0.10432380E+03</rscale>
<asrwt>0</asrwt>
<pdfrwt beam="1">  1        2 0.55224017E+00 0.68996010E+02</pdfrwt>
<pdfrwt beam="2">  1        2 0.28555355E+00 0.15774037E+03</pdfrwt>
<totfact> 0.16668535E+00</totfact>
</mgrwt>
</event>
<event>
13    1  0.1595792E-008  0.1057917E+03  0.7546771E-02  0.1330764E+00
          2   -1    0    0  502    0  0.00000000000E+00  0.00000000000E+00  0.51970973990E+03  0.51970973990E+03  0.00000000000E+00 0. -1.
          2   -1    0    0  503    0 -0.00000000000E+00 -0.00000000000E+00 -0.11008827273E+04  0.11008827273E+04  0.00000000000E+00 0. -1.
         24    2    1    2    0    0  0.68685928603E+02  0.87231455770E+02 -0.43376256306E+03  0.45486597325E+03  0.80162390502E+02 0.  0.
         25    2    1    2    0    0 -0.15998815061E+03 -0.11651720992E+02  0.11454560015E+03  0.23340192377E+03  0.12499517018E+03 0.  0.
         24    2    1    2    0    0  0.70655715999E+02  0.32570345858E+02  0.19208832186E+02  0.11533082676E+03  0.82940718191E+02 0.  0.
        -11    1    3    3    0    0 -0.94999823943E+01  0.31932805366E+01 -0.12594872221E+03  0.12634685328E+03  0.00000000000E+00 0.  1.
         12    1    3    3    0    0  0.78185910997E+02  0.84038175234E+02 -0.30781384084E+03  0.32851911998E+03  0.00000000000E+00 0. -1.
        -13    1    5    5    0    0 -0.31287974193E+01  0.29189380601E+02  0.28465335702E+02  0.40891131677E+02  0.00000000000E+00 0.  1.
         14    1    5    5    0    0  0.73784513418E+02  0.33809652571E+01 -0.92565035166E+01  0.74439695081E+02  0.00000000000E+00 0. -1.
          5    1    4    4  501    0 -0.16172385547E+03  0.10813882381E+01  0.52852293739E+02  0.17020937043E+03  0.47000000000E+01 0. -1.
         -5    1    4    4    0  501  0.17357048546E+01 -0.12733109230E+02  0.61693306413E+02  0.63192553344E+02  0.47000000000E+01 0. -1.
          1    1    1    2  502    0 -0.38552847551E+02 -0.11497718940E+03  0.25244763875E+03  0.28006407561E+03  0.00000000000E+00 0. -1.
          1    1    1    2  503    0  0.59199353563E+02  0.68271087659E+01 -0.53361249540E+03  0.53692966776E+03  0.00000000000E+00 0. -1.
<mgrwt>
<rscale>  0 0.79399672E+02</rscale>
<asrwt>0</asrwt>
<pdfrwt beam="1">  1        2 0.76427904E-01 0.10579168E+03</pdfrwt>
<pdfrwt beam="2">  1        2 0.16189452E+00 0.59591718E+02</pdfrwt>
<totfact> 0.26210852E+02</totfact>
</mgrwt>
</event>
<event>
13    1  0.1595792E-008  0.5458626E+02  0.7546771E-02  0.1477633E+00
         -1   -1    0    0    0  501 -0.00000000000E+00  0.00000000000E+00  0.70481170705E+03  0.70481170705E+03  0.00000000000E+00 0.  1.
          2   -1    0    0  503    0  0.00000000000E+00 -0.00000000000E+00 -0.80936296958E+03  0.80936296958E+03  0.00000000000E+00 0. -1.
         24    2    1    2    0    0 -0.14207098108E+02 -0.60600385733E+01  0.22137295835E+03  0.23543203050E+03  0.78636432996E+02 0.  0.
         25    2    1    2    0    0  0.25261086418E+02  0.11035536745E+03  0.13141695239E+03  0.21380613339E+03  0.12500487065E+03 0.  0.
         24    2    1    2    0    0  0.15302834167E+02 -0.38345179857E+02  0.90090302847E+02  0.12814775566E+03  0.81246877235E+02 0.  0.
        -13    1    3    3    0    0  0.11835774819E+02 -0.32536280244E+02  0.15995311282E+03  0.16365724365E+03  0.00000000000E+00 0.  1.
         14    1    3    3    0    0 -0.26042872927E+02  0.26476241671E+02  0.61419845532E+02  0.71774786858E+02  0.00000000000E+00 0. -1.
        -13    1    5    5    0    0 -0.14568330235E+02 -0.25128514999E+02  0.90946359408E+02  0.95472083886E+02  0.00000000000E+00 0.  1.
         14    1    5    5    0    0  0.29871164403E+02 -0.13216664858E+02 -0.85605656090E+00  0.32675671769E+02  0.00000000000E+00 0. -1.
          5    1    4    4  502    0  0.26704225944E+02  0.56610489560E+02  0.14512964621E+03  0.15812200169E+03  0.47000000000E+01 0. -1.
         -5    1    4    4    0  502 -0.14431395265E+01  0.53744877887E+02 -0.13712693817E+02  0.55684131694E+02  0.47000000000E+01 0. -1.
          1    1    1    2  503    0 -0.34074374497E+02 -0.12340349842E+02 -0.73788959518E+03  0.73877899396E+03  0.00000000000E+00 0. -1.
         -2    1    1    2    0  501  0.77175520200E+01 -0.53609799175E+02  0.19045811907E+03  0.19800976313E+03  0.00000000000E+00 0.  1.
<mgrwt>
<rscale>  0 0.44477112E+02</rscale>
<asrwt>0</asrwt>
<pdfrwt beam="2">  1        2 0.11902397E+00 0.36240133E+02</pdfrwt>
<pdfrwt beam="1">  1       -1 0.10364878E+00 0.54586264E+02</pdfrwt>
<totfact> 0.45821907E+01</totfact>
</mgrwt>
</event>
<event>
13    1  0.1595792E-008  0.8679857E+02  0.7546771E-02  0.1383642E+00
          2   -1    0    0  502    0  0.00000000000E+00  0.00000000000E+00  0.74158767211E+03  0.74158767211E+03  0.00000000000E+00 0. -1.
          2   -1    0    0  503    0 -0.00000000000E+00 -0.00000000000E+00 -0.17187075566E+04  0.17187075566E+04  0.00000000000E+00 0. -1.
         24    2    1    2    0    0 -0.88263479917E+01 -0.49183660377E+02  0.27902865869E+02  0.98332862536E+02  0.79961522396E+02 0.  0.
         25    2    1    2    0    0 -0.90627435092E+02  0.56845748777E+02  0.65438126034E+01  0.16465398701E+03  0.12499337107E+03 0.  0.
         24    2    1    2    0    0  0.67687402768E+02 -0.70226063025E+02  0.16487312090E+03  0.20749646398E+03  0.79739276071E+02 0.  0.
        -11    1    5    5    0    0 -0.30532928918E+01 -0.36520411948E+02  0.17557346843E+02  0.40636480095E+02  0.00000000000E+00 0.  1.
         12    1    5    5    0    0  0.70740695660E+02 -0.33705651077E+02  0.14731577405E+03  0.16685998389E+03  0.00000000000E+00 0. -1.
        -11    1    3    3    0    0 -0.40463767852E+02 -0.24272008876E+02  0.33232715477E+02  0.57713605862E+02  0.00000000000E+00 0.  1.
         12    1    3    3    0    0  0.31637419860E+02 -0.24911651502E+02 -0.53298496079E+01  0.40619256674E+02  0.00000000000E+00 0. -1.
          5    1    4    4  501    0  0.25773033694E+02  0.31122158946E+02 -0.15123093557E+02  0.43400875589E+02  0.47000000000E+01 0.  1.
         -5    1    4    4    0  501 -0.11640046879E+03  0.25723589832E+02  0.21666906160E+02  0.12125311142E+03  0.47000000000E+01 0.  1.
          1    1    1    2  502    0 -0.42843776529E+02  0.18018610116E+02  0.40416082447E+03  0.40682457096E+03  0.00000000000E+00 0. -1.
          1    1    1    2  503    0  0.74610156845E+02  0.44545364509E+02 -0.15806005084E+04  0.15829873443E+04  0.00000000000E+00 0. -1.
<mgrwt>
<rscale>  0 0.63515944E+02</rscale>
<asrwt>0</asrwt>
<pdfrwt beam="1">  1        2 0.10905701E+00 0.46478592E+02</pdfrwt>
<pdfrwt beam="2">  1        2 0.25275111E+00 0.86798567E+02</pdfrwt>
<totfact> 0.86122507E+01</totfact>
</mgrwt>
</event>
<event>
13    1  0.1595792E-008  0.6858045E+02  0.7546771E-02  0.1465579E+00
          2   -1    0    0  503    0  0.00000000000E+00  0.00000000000E+00  0.86077696615E+03  0.86077696615E+03  0.00000000000E+00 0. -1.
          2   -1    0    0  502    0 -0.00000000000E+00 -0.00000000000E+00 -0.29163990992E+03  0.29163990992E+03  0.00000000000E+00 0. -1.
         24    2    1    2    0    0 -0.38583103683E+02 -0.58737966315E+02 -0.29401048641E+02  0.10166757425E+03  0.67328073017E+02 0.  0.
         25    2    1    2    0    0 -0.13496501808E+02 -0.14091286199E+02 -0.41776062720E+02  0.13323068271E+03  0.12499782195E+03 0.  0.
         24    2    1    2    0    0 -0.69558391612E+01  0.24211961022E+02  0.14359690099E+03  0.16660421096E+03  0.80636780579E+02 0.  0.
        -11    1    5    5    0    0 -0.29659082892E+02 -0.18161642703E+02  0.76798224529E+02  0.84305834641E+02  0.00000000000E+00 0.  1.
         12    1    5    5    0    0  0.22703243731E+02  0.42373603725E+02  0.66798676460E+02  0.82298376322E+02  0.00000000000E+00 0. -1.
        -11    1    3    3    0    0  0.89902480636E+01 -0.43372891033E+02 -0.12912021677E+01  0.44313648460E+02  0.00000000000E+00 0.  1.
         12    1    3    3    0    0 -0.47573351747E+02 -0.15365075282E+02 -0.28109846473E+02  0.57353925791E+02  0.00000000000E+00 0. -1.
          5    1    4    4  501    0  0.48960858785E+01  0.41375094865E+02  0.21375263076E+02  0.47062320423E+02  0.47000000000E+01 0. -1.
         -5    1    4    4    0  501 -0.18392587686E+02 -0.55466381064E+02 -0.63151325796E+02  0.86168362291E+02  0.47000000000E+01 0. -1.
          1    1    1    2  502    0  0.30331940467E+02  0.61446357112E+02 -0.11743084404E+03  0.13596207025E+03  0.00000000000E+00 0. -1.
          1    1    1    2  503    0  0.28703504185E+02 -0.12829065621E+02  0.61414811064E+03  0.61495233789E+03  0.00000000000E+00 0. -1.
<mgrwt>
<rscale>  0 0.46434599E+02</rscale>
<asrwt>0</asrwt>
<pdfrwt beam="1">  1        2 0.12658485E+00 0.31440039E+02</pdfrwt>
<pdfrwt beam="2">  1        2 0.42888222E-01 0.68580446E+02</pdfrwt>
<totfact> 0.67614678E+02</totfact>
</mgrwt>
</event>
<event>
13    1  0.1595792E-008  0.5878911E+02  0.7546771E-02  0.1477615E+00
          2   -1    0    0  502    0  0.00000000000E+00  0.00000000000E+00  0.67697589794E+03  0.67697589794E+03  0.00000000000E+00 0. -1.
          4   -1    0    0  503    0 -0.00000000000E+00 -0.00000000000E+00 -0.13415731057E+04  0.13415731057E+04  0.00000000000E+00 0. -1.
         24    2    1    2    0    0 -0.57854315837E+02 -0.14087091219E+03 -0.76424632580E+02  0.18817591867E+03  0.79860604440E+02 0.  0.
         25    2    1    2    0    0  0.16126145112E+02  0.11031407966E+03 -0.19164355595E+02  0.16858828234E+03  0.12500195074E+03 0.  0.
         24    2    1    2    0    0  0.22056363302E+01  0.65687197908E+02  0.20941495370E+02  0.10478771479E+03  0.78881215387E+02 0.  0.
        -11    1    5    5    0    0 -0.45974773643E+01 -0.13148419927E+02 -0.12657754449E+02  0.18821171387E+02  0.00000000000E+00 0.  1.
         12    1    5    5    0    0  0.68031136945E+01  0.78835617835E+02  0.33599249820E+02  0.85966543398E+02  0.00000000000E+00 0. -1.
        -13    1    3    3    0    0 -0.41220736564E+02 -0.13587458743E+02 -0.15512346196E+02  0.46091225222E+02  0.00000000000E+00 0.  1.
         14    1    3    3    0    0 -0.16633579273E+02 -0.12728345344E+03 -0.60912286384E+02  0.14208469345E+03  0.00000000000E+00 0. -1.
          5    1    4    4  501    0 -0.31423995829E+02 -0.12787096544E+02  0.41366524481E+01  0.34498974555E+02  0.47000000000E+01 0. -1.
         -5    1    4    4    0  501  0.47550140941E+02  0.12310117621E+03 -0.23301008043E+02  0.13408930779E+03  0.47000000000E+01 0. -1.
          1    1    1    2  502    0 -0.18879090420E+02 -0.27859303512E+02  0.48213005158E+03  0.48330316313E+03  0.00000000000E+00 0. -1.
          3    1    1    2  503    0  0.58401624814E+02 -0.72710618726E+01 -0.10720797665E+04  0.10736939247E+04  0.00000000000E+00 0. -1.
<mgrwt>
<rscale>  0 0.44479902E+02</rscale>
<asrwt>0</asrwt>
<pdfrwt beam="1">  1        2 0.99555279E-01 0.33653541E+02</pdfrwt>
<pdfrwt beam="2">  1        4 0.19729016E+00 0.58789109E+02</pdfrwt>
<totfact> 0.39247730E+00</totfact>
</mgrwt>
</event>
<event>
13    1  0.1595792E-008  0.4616820E+02  0.7546771E-02  0.1560124E+00
          2   -1    0    0  502    0  0.00000000000E+00  0.00000000000E+00  0.13815360357E+04  0.13815360357E+04  0.00000000000E+00 0. -1.
          2   -1    0    0  503    0 -0.00000000000E+00 -0.00000000000E+00 -0.54345223940E+03  0.54345223940E+03  0.00000000000E+00 0. -1.
         24    2    1    2    0    0 -0.14160020256E+01 -0.26824788693E+02 -0.10125603996E+03  0.13460039034E+03  0.84515709193E+02 0.  0.
         25    2    1    2    0    0 -0.45648245682E+02 -0.52990395806E+02 -0.85785834361E+02  0.16695810730E+03  0.12499622328E+03 0.  0.
         24    2    1    2    0    0 -0.15400611874E+01  0.42320369899E+02  0.10827174341E+04  0.10864680148E+04  0.79638681612E+02 0.  0.
        -11    1    5    5    0    0 -0.23781745125E+02  0.42520271041E+02  0.34581266921E+03  0.34922764358E+03  0.00000000000E+00 0.  1.
         12    1    5    5    0    0  0.22241683938E+02 -0.19990114173E+00  0.73690476486E+03  0.73724037121E+03  0.00000000000E+00 0. -1.
        -13    1    3    3    0    0  0.39088405184E+02 -0.23681580020E+02 -0.38073659985E+02  0.59483814914E+02  0.00000000000E+00 0.  1.
         14    1    3    3    0    0 -0.40504407209E+02 -0.31432086733E+01 -0.63182379973E+02  0.75116575422E+02  0.00000000000E+00 0. -1.
          5    1    4    4  501    0  0.31072085102E+02 -0.25300733486E+02  0.94942175281E+01  0.41446733936E+02  0.47000000000E+01 0. -1.
         -5    1    4    4    0  501 -0.76720330784E+02 -0.27689662320E+02 -0.95280051889E+02  0.12551137336E+03  0.47000000000E+01 0. -1.
          1    1    1    2  502    0  0.24576981770E+02 -0.19078684936E+01  0.23725137925E+03  0.23852858309E+03  0.00000000000E+00 0. -1.
          1    1    1    2  503    0  0.24027327125E+02  0.39402683093E+02 -0.29484314270E+03  0.29843317959E+03  0.00000000000E+00 0. -1.
<mgrwt>
<rscale>  0 0.33735572E+02</rscale>
<asrwt>0</asrwt>
<pdfrwt beam="1">  1        2 0.20316706E+00 0.24650923E+02</pdfrwt>
<pdfrwt beam="2">  1        2 0.79919447E-01 0.46168204E+02</pdfrwt>
<totfact> 0.19443856E+02</totfact>
</mgrwt>
</event>
<event>
13    1  0.1595792E-008  0.2109674E+03  0.7546771E-02  0.1181870E+00
         -1   -1    0    0    0  501 -0.00000000000E+00  0.00000000000E+00  0.43755858751E+03  0.43755858751E+03  0.00000000000E+00 0.  1.
          2   -1    0    0  503    0  0.00000000000E+00 -0.00000000000E+00 -0.18078887499E+04  0.18078887499E+04  0.00000000000E+00 0. -1.
         24    2    1    2    0    0  0.12458171883E+03 -0.77456276216E+02  0.74791484612E+00  0.16799975025E+03  0.81873544673E+02 0.  0.
         25    2    1    2    0    0 -0.20939057033E+03 -0.29880048838E+02 -0.13953337948E+03  0.28254492960E+03  0.12499937996E+03 0.  0.
         24    2    1    2    0    0  0.14679731037E+02 -0.14697124565E+03 -0.18625955354E+03  0.25029380480E+03  0.78347468910E+02 0.  0.
        -11    1    5    5    0    0  0.42525611392E+02 -0.56701458916E+02 -0.61745652480E+02  0.94000046104E+02  0.00000000000E+00 0.  1.
         12    1    5    5    0    0 -0.27845880355E+02 -0.90269786733E+02 -0.12451390106E+03  0.15629375869E+03  0.00000000000E+00 0. -1.
        -13    1    3    3    0    0  0.12931986852E+03 -0.70017993534E+02  0.18461056571E+02  0.14821254475E+03  0.00000000000E+00 0.  1.
         14    1    3    3    0    0 -0.47381496918E+01 -0.74382826820E+01 -0.17713141724E+02  0.19787205500E+02  0.00000000000E+00 0. -1.
          5    1    4    4  502    0 -0.11416721185E+03 -0.77833574068E+02 -0.68032234415E+02  0.15408663938E+03  0.47000000000E+01 0. -1.
         -5    1    4    4    0  502 -0.95223358481E+02  0.47953525230E+02 -0.71501145063E+02  0.12845829023E+03  0.47000000000E+01 0. -1.
          1    1    1    2  503    0  0.15253913324E+03  0.15256512110E+03 -0.12680195493E+04  0.12862417661E+04  0.00000000000E+00 0. -1.
         -2    1    1    2    0  501 -0.82410012769E+02  0.10174244960E+03  0.22273440511E+03  0.25836708667E+03  0.00000000000E+00 0.  1.
<mgrwt>
<rscale>  0 0.16619921E+03</rscale>
<asrwt>0</asrwt>
<pdfrwt beam="2">  1        2 0.26586599E+00 0.21096737E+03</pdfrwt>
<pdfrwt beam="1">  1       -1 0.64346851E-01 0.13093104E+03</pdfrwt>
<totfact> 0.31423610E+01</totfact>
</mgrwt>
</event>
<event>
13    1  0.1595792E-008  0.1686385E+03  0.7546771E-02  0.1318568E+00
          2   -1    0    0  503    0  0.00000000000E+00  0.00000000000E+00  0.71893952545E+03  0.71893952545E+03  0.00000000000E+00 0. -1.
          2   -1    0    0  502    0 -0.00000000000E+00 -0.00000000000E+00 -0.15436294874E+04  0.15436294874E+04  0.00000000000E+00 0. -1.
         24    2    1    2    0    0  0.38659327285E+02  0.30884377340E+02 -0.15970666297E+03  0.18499876765E+03  0.79182936840E+02 0.  0.
         25    2    1    2    0    0  0.88854879965E+02 -0.22284940243E+03 -0.71678570644E+03  0.76613639088E+03  0.12500469833E+03 0.  0.
         24    2    1    2    0    0 -0.29215187332E+03  0.17433124838E+03  0.14479754766E+03  0.38037439681E+03  0.89298660109E+02 0.  0.
        -13    1    5    5    0    0 -0.28679375619E+03  0.17188176174E+03  0.12055432044E+03  0.35542557981E+03  0.00000000000E+00 0.  1.
         14    1    5    5    0    0 -0.53581171330E+01  0.24494866442E+01  0.24243227217E+02  0.24948817005E+02  0.00000000000E+00 0. -1.
        -13    1    3    3    0    0  0.20178247758E+00  0.30798484701E+02 -0.13682541993E+03  0.14024900326E+03  0.00000000000E+00 0.  1.
         14    1    3    3    0    0  0.38457544807E+02  0.85892639481E-01 -0.22881243034E+02  0.44749764390E+02  0.00000000000E+00 0. -1.
          5    1    4    4  501    0 -0.25994967695E+02 -0.14369641978E+02 -0.11771278063E+03  0.12149326599E+03  0.47000000000E+01 0. -1.
         -5    1    4    4    0  501  0.11484984766E+03 -0.20847976045E+03 -0.59907292581E+03  0.64464312489E+03  0.47000000000E+01 0. -1.
          1    1    1    2  502    0  0.73343138573E+01 -0.41003326459E+02 -0.49430195917E+03  0.49605392024E+03  0.00000000000E+00 0. -1.
          1    1    1    2  503    0  0.15730335221E+03  0.58637103171E+02  0.40130681898E+03  0.43500553726E+03  0.00000000000E+00 0. -1.
<mgrwt>
<rscale>  0 0.83812209E+02</rscale>
<asrwt>0</asrwt>
<pdfrwt beam="1">  1        2 0.10572640E+00 0.16863849E+03</pdfrwt>
<pdfrwt beam="2">  1        2 0.22700433E+00 0.41654111E+02</pdfrwt>
<totfact> 0.11106719E+02</totfact>
</mgrwt>
</event>
<event>
13    1  0.1595792E-008  0.6647541E+02  0.7546771E-02  0.1511445E+00
          2   -1    0    0  502    0  0.00000000000E+00  0.00000000000E+00  0.30289465895E+04  0.30289465895E+04  0.00000000000E+00 0. -1.
          2   -1    0    0  503    0 -0.00000000000E+00 -0.00000000000E+00 -0.10821425403E+03  0.10821425403E+03  0.00000000000E+00 0. -1.
         24    2    1    2    0    0  0.94849773351E+01 -0.37415803017E+01 -0.72233332179E+01  0.81824965548E+02  0.80865222598E+02 0.  0.
         25    2    1    2    0    0  0.45792817234E+02  0.13279799669E+02  0.30843211407E+03  0.33619330466E+03  0.12498893520E+03 0.  0.
         24    2    1    2    0    0 -0.93408450572E+02 -0.86218469028E+02  0.70871562328E+03  0.72469775681E+03  0.82159850320E+02 0.  0.
        -13    1    5    5    0    0 -0.31342916934E+02 -0.58887412106E+02  0.18599279138E+03  0.19759408946E+03  0.00000000000E+00 0.  1.
         14    1    5    5    0    0 -0.62065533639E+02 -0.27331056922E+02  0.52272283190E+03  0.52710366735E+03  0.00000000000E+00 0. -1.
        -13    1    3    3    0    0 -0.53729388286E+00 -0.33612938734E+02 -0.28278611251E+02  0.43929468348E+02  0.00000000000E+00 0.  1.
         14    1    3    3    0    0  0.10022271218E+02  0.29871358432E+02  0.21055278033E+02  0.37895497200E+02  0.00000000000E+00 0. -1.
          5    1    4    4  501    0  0.16469105187E+02 -0.54719681301E+02  0.16545604339E+03  0.17510930084E+03  0.47000000000E+01 0.  1.
         -5    1    4    4    0  501  0.29323712047E+02  0.67999480970E+02  0.14297607068E+03  0.16108400382E+03  0.47000000000E+01 0.  1.
          1    1    1    2  502    0  0.18487260427E+02  0.63695412798E+02  0.19487021319E+04  0.19498304755E+04  0.00000000000E+00 0. -1.
          1    1    1    2  503    0  0.19643395576E+02  0.12984836864E+02 -0.37894200609E+02  0.44614340945E+02  0.00000000000E+00 0. -1.
<mgrwt>
<rscale>  0 0.39563967E+02</rscale>
<asrwt>0</asrwt>
<pdfrwt beam="1">  1        2 0.44543327E+00 0.66475411E+02</pdfrwt>
<pdfrwt beam="2">  1        2 0.15913863E-01 0.23547165E+02</pdfrwt>
<totfact> 0.14774623E+02</totfact>
</mgrwt>
</event>
<event>
13    1  0.1595792E-008  0.5365281E+02  0.7546771E-02  0.1535229E+00
          2   -1    0    0  503    0  0.00000000000E+00  0.00000000000E+00  0.11933947170E+04  0.11933947170E+04  0.00000000000E+00 0. -1.
          2   -1    0    0  502    0 -0.00000000000E+00 -0.00000000000E+00 -0.37545048870E+04  0.37545048870E+04  0.00000000000E+00 0. -1.
         24    2    1    2    0    0  0.34218744785E+03  0.37048005335E+03 -0.63557282137E+03  0.81658495253E+03  0.92252122121E+02 0.  0.
         25    2    1    2    0    0 -0.23167264724E+03 -0.19624006159E+03 -0.27632108178E+03  0.42913821895E+03  0.12499557383E+03 0.  0.
         24    2    1    2    0    0 -0.12102930169E+03 -0.14736613818E+03  0.22432093294E+03  0.30621603285E+03  0.84163574454E+02 0.  0.
        -11    1    5    5    0    0 -0.13164480580E+03 -0.12515303866E+03  0.18123645653E+03  0.25659363039E+03  0.00000000000E+00 0.  1.
         12    1    5    5    0    0  0.10615504111E+02 -0.22213099525E+02  0.43084476413E+02  0.49622402459E+02  0.00000000000E+00 0. -1.
        -11    1    3    3    0    0  0.12476075557E+03  0.95471521778E+02 -0.14624851325E+03  0.21463616943E+03  0.00000000000E+00 0.  1.
         12    1    3    3    0    0  0.21742669228E+03  0.27500853157E+03 -0.48932430812E+03  0.60194878310E+03  0.00000000000E+00 0. -1.
          5    1    4    4  501    0  0.34535795778E+00  0.11891150826E+02 -0.33495961437E+00  0.12795348296E+02  0.47000000000E+01 0. -1.
         -5    1    4    4    0  501 -0.23201800520E+03 -0.20813121241E+03 -0.27598612217E+03  0.41634287066E+03  0.47000000000E+01 0. -1.
          1    1    1    2  502    0 -0.11648157754E+02  0.22010629660E+02 -0.26337437140E+04  0.26338614425E+04  0.00000000000E+00 0. -1.
          1    1    1    2  503    0  0.22162658841E+02 -0.48884483238E+02  0.76020651429E+03  0.76209895716E+03  0.00000000000E+00 0. -1.
<mgrwt>
<rscale>  0 0.36552742E+02</rscale>
<asrwt>0</asrwt>
<pdfrwt beam="1">  1        2 0.17549923E+00 0.53652807E+02</pdfrwt>
<pdfrwt beam="2">  1        2 0.55213306E+00 0.24902759E+02</pdfrwt>
<totfact> 0.53307208E+00</totfact>
</mgrwt>
</event>
<event>
13    1  0.1595792E-008  0.7683922E+02  0.7546771E-02  0.1433143E+00
          2   -1    0    0  503    0  0.00000000000E+00  0.00000000000E+00  0.10757081261E+04  0.10757081261E+04  0.00000000000E+00 0. -1.
          2   -1    0    0  502    0 -0.00000000000E+00 -0.00000000000E+00 -0.36222629582E+04  0.36222629582E+04  0.00000000000E+00 0. -1.
         24    2    1    2    0    0  0.18691691286E+02 -0.41392093346E+02 -0.11374643697E+04  0.11415508678E+04  0.85149907573E+02 0.  0.
         25    2    1    2    0    0 -0.71724042495E+02 -0.16945813697E+02 -0.53861385975E+03  0.55782005234E+03  0.12500728779E+03 0.  0.
         24    2    1    2    0    0  0.14681309131E+01 -0.39906527999E+02 -0.55728124930E+02  0.10516540803E+03  0.79746177036E+02 0.  0.
        -11    1    3    3    0    0  0.35718461623E+02  0.40675678486E+01 -0.23032981886E+03  0.23311837994E+03  0.00000000000E+00 0.  1.
         12    1    3    3    0    0 -0.17026770338E+02 -0.45459661194E+02 -0.90713455083E+03  0.90843248787E+03  0.00000000000E+00 0. -1.
        -11    1    5    5    0    0  0.13172527357E+02 -0.55489372737E+02 -0.62428255563E+02  0.84556921990E+02  0.00000000000E+00 0.  1.
         12    1    5    5    0    0 -0.11704396444E+02  0.15582844738E+02  0.67001306328E+01  0.20608486037E+02  0.00000000000E+00 0. -1.
          5    1    4    4  501    0 -0.58410500020E+02 -0.65665190510E+02 -0.41451049585E+03  0.42375080523E+03  0.47000000000E+01 0.  1.
         -5    1    4    4    0  501 -0.13313542475E+02  0.48719376813E+02 -0.12410336390E+03  0.13406924711E+03  0.47000000000E+01 0.  1.
          1    1    1    2  502    0  0.23618840202E+02  0.26695864329E+02 -0.18525007389E+04  0.18528436270E+04  0.00000000000E+00 0. -1.
          1    1    1    2  503    0  0.27945380094E+02  0.71548570713E+02  0.10377522612E+04  0.10405911291E+04  0.00000000000E+00 0. -1.
<mgrwt>
<rscale>  0 0.52334340E+02</rscale>
<asrwt>0</asrwt>
<pdfrwt beam="1">  1        2 0.15819237E+00 0.76839223E+02</pdfrwt>
<pdfrwt beam="2">  1        2 0.53268572E+00 0.35644337E+02</pdfrwt>
<totfact> 0.66390448E+00</totfact>
</mgrwt>
</event>
<event>
13    1  0.1595792E-008  0.5711424E+02  0.7546771E-02  0.1567694E+00
          2   -1    0    0  503    0  0.00000000000E+00  0.00000000000E+00  0.16421922862E+04  0.16421922862E+04  0.00000000000E+00 0. -1.
          2   -1    0    0  502    0 -0.00000000000E+00 -0.00000000000E+00 -0.31071833343E+04  0.31071833343E+04  0.00000000000E+00 0. -1.
         24    2    1    2    0    0 -0.16750587707E+03  0.30328743018E+03 -0.15253378785E+04  0.15662442889E+04  0.80150139814E+02 0.  0.
         25    2    1    2    0    0 -0.40486983966E+03 -0.93659657115E+03 -0.26432562403E+03  0.10614265178E+04  0.12500197169E+03 0.  0.
         24    2    1    2    0    0  0.57116468491E+03  0.58498008102E+03  0.26142932694E+03  0.86120094350E+03  0.69935539093E+02 0.  0.
        -11    1    3    3    0    0 -0.12534296847E+03  0.14450329820E+03 -0.83267919064E+03  0.85436918101E+03  0.00000000000E+00 0.  1.
         12    1    3    3    0    0 -0.42162908596E+02  0.15878413198E+03 -0.69265868782E+03  0.71187510790E+03  0.00000000000E+00 0. -1.
        -13    1    5    5    0    0  0.32618916170E+03  0.29111237157E+03  0.12074166083E+03  0.45356844109E+03  0.00000000000E+00 0.  1.
         14    1    5    5    0    0  0.24497552321E+03  0.29386770945E+03  0.14068766611E+03  0.40763250242E+03  0.00000000000E+00 0. -1.
          5    1    4    4  501    0 -0.11637900657E+03 -0.34869173858E+03 -0.14791080832E+03  0.39626973004E+03  0.47000000000E+01 0. -1.
         -5    1    4    4    0  501 -0.28849083309E+03 -0.58790483257E+03 -0.11641481570E+03  0.66515678772E+03  0.47000000000E+01 0. -1.
          1    1    1    2  502    0  0.17926187414E+02 -0.62902710849E+01 -0.59724669282E+03  0.59754876603E+03  0.00000000000E+00 0. -1.
          1    1    1    2  503    0 -0.16715155595E+02  0.54619331040E+02  0.66048982025E+03  0.66295510436E+03  0.00000000000E+00 0. -1.
<mgrwt>
<rscale>  0 0.32940003E+02</rscale>
<asrwt>0</asrwt>
<pdfrwt beam="1">  1        2 0.24149887E+00 0.57114237E+02</pdfrwt>
<pdfrwt beam="2">  1        2 0.45693872E+00 0.18997782E+02</pdfrwt>
<totfact> 0.76270954E+00</totfact>
</mgrwt>
</event>
<event>
13    1  0.1595792E-008  0.1395134E+03  0.7546771E-02  0.1263345E+00
          2   -1    0    0  502    0  0.00000000000E+00  0.00000000000E+00  0.14253558262E+04  0.14253558262E+04  0.00000000000E+00 0. -1.
          2   -1    0    0  503    0 -0.00000000000E+00 -0.00000000000E+00 -0.23916129619E+04  0.23916129619E+04  0.00000000000E+00 0. -1.
         24    2    1    2    0    0  0.11566319725E+03 -0.26164452536E+03 -0.63626514295E+03  0.70355526659E+03  0.91218683190E+02 0.  0.
         25    2    1    2    0    0  0.34716704802E+03  0.32668067977E+02 -0.25143537571E+03  0.44770050436E+03  0.12499532610E+03 0.  0.
         24    2    1    2    0    0 -0.30294940342E+03  0.85081236887E+02 -0.12189011318E+03  0.34737726038E+03  0.82441515237E+02 0.  0.
        -11    1    3    3    0    0  0.86993601653E+02 -0.11766143030E+03 -0.39380129276E+03  0.42010898240E+03  0.00000000000E+00 0.  1.
         12    1    3    3    0    0  0.28669595597E+02 -0.14398309506E+03 -0.24246385019E+03  0.28344628419E+03  0.00000000000E+00 0. -1.
        -13    1    5    5    0    0 -0.21791238602E+03  0.29650502693E+02 -0.58012979049E+02  0.22744332487E+03  0.00000000000E+00 0.  1.
         14    1    5    5    0    0 -0.85037017406E+02  0.55430734193E+02 -0.63877134131E+02  0.11993393551E+03  0.00000000000E+00 0. -1.
          5    1    4    4  501    0  0.17831357158E+03  0.78570807540E+02 -0.14369421837E+03  0.24215536335E+03  0.47000000000E+01 0. -1.
         -5    1    4    4    0  501  0.16885347644E+03 -0.45902739563E+02 -0.10774115733E+03  0.20554514100E+03  0.47000000000E+01 0. -1.
          1    1    1    2  502    0 -0.81298084544E+02  0.11309290331E+03  0.11751506185E+04  0.11833758319E+04  0.00000000000E+00 0. -1.
          1    1    1    2  503    0 -0.78582757303E+02  0.30802317189E+02 -0.11318171224E+04  0.11349599249E+04  0.00000000000E+00 0. -1.
<mgrwt>
<rscale>  0 0.10851492E+03</rscale>
<asrwt>0</asrwt>
<pdfrwt beam="1">  1        2 0.20961115E+00 0.13951342E+03</pdfrwt>
<pdfrwt beam="2">  1        2 0.35170779E+00 0.84403984E+02</pdfrwt>
<totfact> 0.16026098E+01</totfact>
</mgrwt>
</event>
<event>
13    1  0.1595792E-008  0.1650838E+03  0.7546771E-02  0.1237498E+00
          2   -1    0    0  502    0  0.00000000000E+00  0.00000000000E+00  0.12493080289E+04  0.12493080289E+04  0.00000000000E+00 0. -1.
          2   -1    0    0  503    0 -0.00000000000E+00 -0.00000000000E+00 -0.31030906326E+04  0.31030906326E+04  0.00000000000E+00 0. -1.
         24    2    1    2    0    0  0.12923812770E+03  0.45816594560E+02 -0.38966383786E+03  0.42102423760E+03  0.81374738843E+02 0.  0.
         25    2    1    2    0    0  0.21941469188E+03 -0.91506849491E+02  0.18874826620E+03  0.32828675618E+03  0.12501990152E+03 0.  0.
         24    2    1    2    0    0  0.32137795621E+02 -0.42344195867E+02  0.28356425143E+03  0.29975432977E+03  0.81351734433E+02 0.  0.
        -11    1    3    3    0    0  0.88098381858E+02 -0.10273290561E+02 -0.24355068522E+03  0.25919838282E+03  0.00000000000E+00 0.  1.
         12    1    3    3    0    0  0.41139745847E+02  0.56089885122E+02 -0.14611315263E+03  0.16182585477E+03  0.00000000000E+00 0. -1.
        -11    1    5    5    0    0 -0.22814166396E+02 -0.25916302621E+01  0.12807346599E+03  0.13011539273E+03  0.00000000000E+00 0.  1.
         12    1    5    5    0    0  0.54951962017E+02 -0.39752565605E+02  0.15549078545E+03  0.16963893704E+03  0.00000000000E+00 0. -1.
          5    1    4    4  501    0  0.15779191797E+03 -0.61511825531E+02  0.55342617606E+02  0.17823268325E+03  0.47000000000E+01 0. -1.
         -5    1    4    4    0  501  0.61622773910E+02 -0.29995023960E+02  0.13340564859E+03  0.15005407293E+03  0.47000000000E+01 0. -1.
          1    1    1    2  502    0 -0.96340170363E+02  0.77504590846E+02  0.67004627746E+03  0.68135923269E+03  0.00000000000E+00 0. -1.
          1    1    1    2  503    0 -0.28445044484E+03  0.10529859952E+02 -0.26064775609E+04  0.26219741053E+04  0.00000000000E+00 0. -1.
<mgrwt>
<rscale>  0 0.12345850E+03</rscale>
<asrwt>0</asrwt>
<pdfrwt beam="1">  1        2 0.18372177E+00 0.92328866E+02</pdfrwt>
<pdfrwt beam="2">  1        2 0.45633686E+00 0.16508383E+03</pdfrwt>
<totfact> 0.79183227E+00</totfact>
</mgrwt>
</event>
<event>
13    1  0.1595792E-008  0.7339833E+02  0.7546771E-02  0.1454748E+00
          2   -1    0    0  502    0  0.00000000000E+00  0.00000000000E+00  0.96799800189E+03  0.96799800189E+03  0.00000000000E+00 0. -1.
          2   -1    0    0  503    0 -0.00000000000E+00 -0.00000000000E+00 -0.83662209330E+03  0.83662209330E+03  0.00000000000E+00 0. -1.
         24    2    1    2    0    0  0.11506375046E+02  0.24712508626E+02 -0.51349298178E+02  0.91361019264E+02  0.70476809437E+02 0.  0.
         25    2    1    2    0    0 -0.34753162731E+01  0.35243260229E+02  0.29551184625E+02  0.13323648936E+03  0.12499809746E+03 0.  0.
         24    2    1    2    0    0  0.10870253475E+02 -0.13525770866E+02  0.50350847673E+03  0.51008403999E+03  0.79773634926E+02 0.  0.
        -11    1    3    3    0    0 -0.10425147668E+01 -0.24623575198E+02 -0.17531188727E+02  0.30244832133E+02  0.00000000000E+00 0.  1.
         12    1    3    3    0    0  0.12548889813E+02  0.49336083824E+02 -0.33818109451E+02  0.61116187131E+02  0.00000000000E+00 0. -1.
        -13    1    5    5    0    0 -0.11477616728E+02 -0.42995557588E+02  0.29042200796E+03  0.29381166819E+03  0.00000000000E+00 0.  1.
         14    1    5    5    0    0  0.22347870203E+02  0.29469786722E+02  0.21308646877E+03  0.21627237180E+03  0.00000000000E+00 0. -1.
          5    1    4    4  501    0 -0.44192527196E+02  0.28041628940E+02  0.61411351633E+02  0.80825469519E+02  0.47000000000E+01 0. -1.
         -5    1    4    4    0  501  0.40717210923E+02  0.72016312887E+01 -0.31860167008E+02  0.52411019837E+02  0.47000000000E+01 0. -1.
          1    1    1    2  502    0  0.30845828417E+02  0.76503000670E+01  0.35719380373E+03  0.35860480427E+03  0.00000000000E+00 0. -1.
          1    1    1    2  503    0 -0.49747140666E+02 -0.54080298055E+02 -0.70752825831E+03  0.71133374231E+03  0.00000000000E+00 0. -1.
<mgrwt>
<rscale>  0 0.48297271E+02</rscale>
<asrwt>0</asrwt>
<pdfrwt beam="1">  1        2 0.14235265E+00 0.31780375E+02</pdfrwt>
<pdfrwt beam="2">  1        2 0.12303266E+00 0.73398327E+02</pdfrwt>
<totfact> 0.18788988E+02</totfact>
</mgrwt>
</event>
<event>
13    1  0.1595792E-008  0.1186172E+03  0.7546771E-02  0.1490574E+00
          2   -1    0    0  502    0  0.00000000000E+00  0.00000000000E+00  0.60749791894E+03  0.60749791894E+03  0.00000000000E+00 0. -1.
          2   -1    0    0  503    0 -0.00000000000E+00 -0.00000000000E+00 -0.28666146888E+04  0.28666146888E+04  0.00000000000E+00 0. -1.
         24    2    1    2    0    0 -0.19451344502E+02  0.10354235344E+03 -0.21139500529E+03  0.24921463052E+03  0.79502893306E+02 0.  0.
         25    2    1    2    0    0 -0.70264979693E+01 -0.17819248415E+02  0.90198006464E+02  0.15532968569E+03  0.12499893439E+03 0.  0.
         24    2    1    2    0    0 -0.36028814443E+02 -0.14324507117E+01  0.24878584795E+03  0.26432752539E+03  0.81697705908E+02 0.  0.
        -11    1    3    3    0    0  0.18105549954E+02  0.73160546133E+02 -0.83410949385E+02  0.11241736043E+03  0.00000000000E+00 0.  1.
         12    1    3    3    0    0 -0.37556894456E+02  0.30381807303E+02 -0.12798405591E+03  0.13679727009E+03  0.00000000000E+00 0. -1.
        -13    1    5    5    0    0 -0.41671423977E+02  0.30028945729E+02  0.19600021926E+03  0.20261868400E+03  0.00000000000E+00 0.  1.
         14    1    5    5    0    0  0.56426095339E+01 -0.31461396440E+02  0.52785628697E+02  0.61708841386E+02  0.00000000000E+00 0. -1.
          5    1    4    4  501    0  0.41949863058E+02 -0.51617001754E+02  0.50462742830E+02  0.83622271522E+02  0.47000000000E+01 0.  1.
         -5    1    4    4    0  501 -0.48976361027E+02  0.33797753339E+02  0.39735263634E+02  0.71707414166E+02  0.47000000000E+01 0.  1.
          1    1    1    2  502    0 -0.13330216480E+02  0.73623646675E+01  0.20762574184E+03  0.20818344737E+03  0.00000000000E+00 0. -1.
          1    1    1    2  503    0  0.75836873395E+02 -0.91653018977E+02 -0.25943313608E+04  0.25970573187E+04  0.00000000000E+00 0. -1.
<mgrwt>
<rscale>  0 0.42500943E+02</rscale>
<asrwt>0</asrwt>
<pdfrwt beam="1">  1        2 0.89337929E-01 0.15228233E+02</pdfrwt>
<pdfrwt beam="2">  1        2 0.42156099E+00 0.11861718E+03</pdfrwt>
<totfact> 0.28621583E+01</totfact>
</mgrwt>
</event>
<event>
13    1  0.1595792E-008  0.6272936E+02  0.7546771E-02  0.1511149E+00
          2   -1    0    0  502    0  0.00000000000E+00  0.00000000000E+00  0.34471891794E+04  0.34471891794E+04  0.00000000000E+00 0. -1.
          2   -1    0    0  503    0 -0.00000000000E+00 -0.00000000000E+00 -0.66150496333E+03  0.66150496333E+03  0.00000000000E+00 0. -1.
         24    2    1    2    0    0 -0.70370038777E+02 -0.10906885082E+03 -0.28696249387E+03  0.32522499295E+03  0.81091717055E+02 0.  0.
         25    2    1    2    0    0 -0.47351230734E+02  0.86908165213E+01  0.17756698822E+03  0.22242411461E+03  0.12499912845E+03 0.  0.
         24    2    1    2    0    0  0.40586124620E+02  0.68074843655E+02  0.14544470286E+04  0.14588296879E+04  0.80538695455E+02 0.  0.
        -11    1    5    5    0    0  0.45694408467E+02  0.90919007200E+01  0.39658807275E+03  0.39931534039E+03  0.00000000000E+00 0.  1.
         12    1    5    5    0    0 -0.51082838466E+01  0.58982942935E+02  0.10578589558E+04  0.10595143475E+04  0.00000000000E+00 0. -1.
        -13    1    3    3    0    0 -0.81942979473E+02 -0.83836785654E+02 -0.18070208534E+03  0.21539847298E+03  0.00000000000E+00 0.  1.
         14    1    3    3    0    0  0.11572940696E+02 -0.25232065162E+02 -0.10626040853E+03  0.10982651998E+03  0.00000000000E+00 0. -1.
          5    1    4    4  501    0 -0.82506778575E+02  0.27308522104E+02  0.15122029402E+03  0.17447862681E+03  0.47000000000E+01 0.  1.
         -5    1    4    4    0  501  0.35155547841E+02 -0.18617705583E+02  0.26346694194E+02  0.47945487798E+02  0.47000000000E+01 0.  1.
          1    1    1    2  502    0  0.52243356026E+02  0.34662949993E+02  0.17703958338E+04  0.17715056581E+04  0.00000000000E+00 0. -1.
          1    1    1    2  503    0  0.24891788864E+02 -0.23597593541E+01 -0.32976314063E+03  0.33070968920E+03  0.00000000000E+00 0. -1.
<mgrwt>
<rscale>  0 0.39603621E+02</rscale>
<asrwt>0</asrwt>
<pdfrwt beam="1">  1        2 0.50693958E+00 0.62729362E+02</pdfrwt>
<pdfrwt beam="2">  1        2 0.97280144E-01 0.25003392E+02</pdfrwt>
<totfact> 0.13908966E+01</totfact>
</mgrwt>
</event>
<event>
13    1  0.1595792E-008  0.2467219E+03  0.7546771E-02  0.1131272E+00
          2   -1    0    0  503    0  0.00000000000E+00  0.00000000000E+00  0.24421132964E+04  0.24421132964E+04  0.00000000000E+00 0. -1.
          2   -1    0    0  502    0 -0.00000000000E+00 -0.00000000000E+00 -0.27881498538E+04  0.27881498538E+04  0.00000000000E+00 0. -1.
         24    2    1    2    0    0  0.93498805566E+02  0.13545938176E+03 -0.18968768234E+02  0.19018533286E+03  0.93377598594E+02 0.  0.
         25    2    1    2    0    0 -0.13909675361E+03 -0.73585969900E+03 -0.11114593247E+04  0.13460327404E+04  0.12499961794E+03 0.  0.
         24    2    1    2    0    0  0.31198919741E+02  0.60036712437E+02  0.10228968485E+03  0.14981768541E+03  0.86048705987E+02 0.  0.
        -11    1    3    3    0    0  0.97181233042E+02  0.14039986350E+03 -0.33853338805E+02  0.17407573718E+03  0.00000000000E+00 0.  1.
         12    1    3    3    0    0 -0.36824274765E+01 -0.49404817423E+01  0.14884570571E+02  0.16109595683E+02  0.00000000000E+00 0. -1.
        -13    1    5    5    0    0 -0.11764741200E+02  0.49980827256E+02  0.17523557840E+02  0.54254652409E+02  0.00000000000E+00 0.  1.
         14    1    5    5    0    0  0.42963660942E+02  0.10055885182E+02  0.84766127010E+02  0.95563033002E+02  0.00000000000E+00 0. -1.
          5    1    4    4  501    0 -0.15428389268E+02 -0.21786199127E+02 -0.87171617709E+02  0.91288852560E+02  0.47000000000E+01 0.  1.
         -5    1    4    4    0  501 -0.12366836434E+03 -0.71407349987E+03 -0.10242877070E+04  0.12547438879E+04  0.47000000000E+01 0.  1.
          1    1    1    2  502    0  0.40339783485E+02  0.23146535729E+03 -0.14099207075E+04  0.14293634636E+04  0.00000000000E+00 0. -1.
          1    1    1    2  503    0 -0.25940755180E+02  0.30889824751E+03  0.20920225581E+04  0.21148639279E+04  0.00000000000E+00 0. -1.
<mgrwt>
<rscale>  0 0.22353835E+03</rscale>
<asrwt>0</asrwt>
<pdfrwt beam="1">  1        2 0.35913431E+00 0.20253332E+03</pdfrwt>
<pdfrwt beam="2">  1        2 0.41002203E+00 0.24672185E+03</pdfrwt>
<totfact> 0.26381230E+00</totfact>
</mgrwt>
</event>
<event>
13    1  0.1595792E-008  0.1240398E+03  0.7546771E-02  0.1387758E+00
          2   -1    0    0  503    0  0.00000000000E+00  0.00000000000E+00  0.12994519845E+04  0.12994519845E+04  0.00000000000E+00 0. -1.
          2   -1    0    0  502    0 -0.00000000000E+00 -0.00000000000E+00 -0.14131379832E+04  0.14131379832E+04  0.00000000000E+00 0. -1.
         24    2    1    2    0    0  0.97144868443E+02  0.63898728810E+02 -0.18504409500E+03  0.23324072838E+03  0.81484644395E+02 0.  0.
         25    2    1    2    0    0  0.13458286472E+03 -0.11349593416E+03 -0.20396591611E+03  0.29702310812E+03  0.12500702891E+03 0.  0.
         24    2    1    2    0    0 -0.10513385051E+03 -0.30196485785E+02  0.17169956420E+03  0.21936667751E+03  0.81707065662E+02 0.  0.
        -13    1    5    5    0    0 -0.19319789662E+02 -0.44231393527E+02  0.47214223121E+02  0.67519281031E+02  0.00000000000E+00 0.  1.
         14    1    5    5    0    0 -0.85814060845E+02  0.14034907742E+02  0.12448534108E+03  0.15184739648E+03  0.00000000000E+00 0. -1.
        -13    1    3    3    0    0  0.86978096803E+02  0.16461008182E+02 -0.14696716142E+03  0.17156777276E+03  0.00000000000E+00 0.  1.
         14    1    3    3    0    0  0.10166771640E+02  0.47437720628E+02 -0.38076933578E+02  0.61672955618E+02  0.00000000000E+00 0. -1.
          5    1    4    4  501    0 -0.72124882731E+01 -0.17124587416E+00  0.12062067613E+02  0.14820013068E+02  0.47000000000E+01 0.  1.
         -5    1    4    4    0  501  0.14179535299E+03 -0.11332468829E+03 -0.21602798372E+03  0.28220309505E+03  0.47000000000E+01 0.  1.
          1    1    1    2  502    0 -0.14014376073E+02  0.28165478696E+02 -0.92568798657E+03  0.92622240601E+03  0.00000000000E+00 0. -1.
          1    1    1    2  503    0 -0.11257950658E+03  0.51628212439E+02  0.10293124348E+04  0.10367370477E+04  0.00000000000E+00 0. -1.
<mgrwt>
<rscale>  0 0.62467790E+02</rscale>
<asrwt>0</asrwt>
<pdfrwt beam="1">  1        2 0.19109588E+00 0.12403983E+03</pdfrwt>
<pdfrwt beam="2">  1        2 0.20781441E+00 0.31459449E+02</pdfrwt>
<totfact> 0.60018639E+01</totfact>
</mgrwt>
</event>
<event>
13    1  0.1595792E-008  0.1220506E+03  0.7546771E-02  0.1450315E+00
          2   -1    0    0  503    0  0.00000000000E+00  0.00000000000E+00  0.19021234749E+04  0.19021234749E+04  0.00000000000E+00 0. -1.
          2   -1    0    0  502    0 -0.00000000000E+00 -0.00000000000E+00 -0.31863141861E+04  0.31863141861E+04  0.00000000000E+00 0. -1.
         24    2    1    2    0    0 -0.27573874618E+03 -0.27743802169E+03 -0.12937131490E+04  0.13539316862E+04  0.80209643759E+02 0.  0.
         25    2    1    2    0    0  0.38464615637E+03  0.68547912878E+03 -0.70401917859E+03  0.10625925945E+04  0.12500286557E+03 0.  0.
         24    2    1    2    0    0 -0.18629409718E+03 -0.34108609253E+03  0.13085184911E+03  0.42177841093E+03  0.98638777108E+02 0.  0.
        -11    1    5    5    0    0 -0.13425616363E+03 -0.14952531743E+03  0.84110154439E+02  0.21784640485E+03  0.00000000000E+00 0.  1.
         12    1    5    5    0    0 -0.52037933554E+02 -0.19156077509E+03  0.46741694674E+02  0.20393200608E+03  0.00000000000E+00 0. -1.
        -11    1    3    3    0    0 -0.11032166638E+03 -0.82522532350E+02 -0.34812944110E+03  0.37439944735E+03  0.00000000000E+00 0.  1.
         12    1    3    3    0    0 -0.16541707980E+03 -0.19491548934E+03 -0.94558370794E+03  0.97953223888E+03  0.00000000000E+00 0. -1.
          5    1    4    4  501    0  0.11382240683E+03  0.12308836883E+03 -0.10771735026E+03  0.19932737992E+03  0.47000000000E+01 0. -1.
         -5    1    4    4    0  501  0.27082374954E+03  0.56239075995E+03 -0.59630182833E+03  0.86326521456E+03  0.47000000000E+01 0. -1.
          1    1    1    2  502    0 -0.15160351316E+02  0.12648804360E+02 -0.83097493153E+03  0.83120945936E+03  0.00000000000E+00 0. -1.
          1    1    1    2  503    0  0.92547038311E+02 -0.79603818926E+02  0.14136646988E+04  0.14189255100E+04  0.00000000000E+00 0. -1.
<mgrwt>
<rscale>  0 0.49089464E+02</rscale>
<asrwt>0</asrwt>
<pdfrwt beam="1">  1        2 0.27972404E+00 0.12205056E+03</pdfrwt>
<pdfrwt beam="2">  1        2 0.46857561E+00 0.19744075E+02</pdfrwt>
<totfact> 0.48245435E+00</totfact>
</mgrwt>
</event>
<event>
13    1  0.1595792E-008  0.8789372E+02  0.7546771E-02  0.1345306E+00
          2   -1    0    0  502    0  0.00000000000E+00  0.00000000000E+00  0.17438286942E+04  0.17438286942E+04  0.00000000000E+00 0. -1.
          2   -1    0    0  503    0 -0.00000000000E+00 -0.00000000000E+00 -0.29491561632E+04  0.29491561632E+04  0.00000000000E+00 0. -1.
         24    2    1    2    0    0 -0.80488138573E+03 -0.91917311406E+02 -0.12982653336E+03  0.82587315884E+03  0.94491843582E+02 0.  0.
         25    2    1    2    0    0  0.10729090232E+04  0.18158832792E+01 -0.82626875878E+03  0.13599569166E+04  0.12500273519E+03 0.  0.
         24    2    1    2    0    0 -0.21881015833E+03 -0.51739436875E+02  0.38676159773E+03  0.45452815477E+03  0.80352070774E+02 0.  0.
        -13    1    5    5    0    0 -0.22411205815E+03 -0.43346359358E+02  0.36339176999E+03  0.42913715753E+03  0.00000000000E+00 0.  1.
         14    1    5    5    0    0  0.53018998181E+01 -0.83930775168E+01  0.23369827742E+02  0.25390997235E+02  0.00000000000E+00 0. -1.
        -13    1    3    3    0    0 -0.54349109727E+03 -0.99711966784E+02 -0.11169965590E+03  0.56373917929E+03  0.00000000000E+00 0.  1.
         14    1    3    3    0    0 -0.26139028846E+03  0.77946553774E+01 -0.18126877464E+02  0.26213397956E+03  0.00000000000E+00 0. -1.
          5    1    4    4  501    0  0.42089053426E+03  0.38401240953E+02 -0.38556299188E+03  0.57210524193E+03  0.47000000000E+01 0. -1.
         -5    1    4    4    0  501  0.65201848896E+03 -0.36585357674E+02 -0.44070576689E+03  0.78785167469E+03  0.47000000000E+01 0. -1.
          1    1    1    2  502    0 -0.12951433532E+02  0.61871653271E+02  0.70546784618E+03  0.70829423484E+03  0.00000000000E+00 0. -1.
          1    1    1    2  503    0 -0.36266045628E+02  0.79969211731E+02 -0.13414616208E+04  0.13443323923E+04  0.00000000000E+00 0. -1.
<mgrwt>
<rscale>  0 0.74538558E+02</rscale>
<asrwt>0</asrwt>
<pdfrwt beam="1">  1        2 0.25644540E+00 0.63212666E+02</pdfrwt>
<pdfrwt beam="2">  1        2 0.43369943E+00 0.87893725E+02</pdfrwt>
<totfact> 0.62127695E+00</totfact>
</mgrwt>
</event>
<event>
13    1  0.1595792E-008  0.2134724E+03  0.7546771E-02  0.1346373E+00
          2   -1    0    0  502    0  0.00000000000E+00  0.00000000000E+00  0.30297226431E+04  0.30297226431E+04  0.00000000000E+00 0. -1.
          2   -1    0    0  503    0 -0.00000000000E+00 -0.00000000000E+00 -0.12174482082E+04  0.12174482082E+04  0.00000000000E+00 0. -1.
         24    2    1    2    0    0 -0.11886363223E+03 -0.70513509329E+02 -0.16903386011E+01  0.16215357333E+03  0.84795082601E+02 0.  0.
         25    2    1    2    0    0  0.69445076403E+03 -0.32949853622E+03  0.45871850836E+03  0.90381399953E+03  0.12500370719E+03 0.  0.
         24    2    1    2    0    0 -0.39104727824E+03  0.43965154878E+03  0.28874650399E+01  0.59393420733E+03  0.80858190745E+02 0.  0.
        -11    1    5    5    0    0 -0.18277454746E+03  0.21025069391E+03 -0.38881028645E+02  0.28128921750E+03  0.00000000000E+00 0.  1.
         12    1    5    5    0    0 -0.20827273078E+03  0.22940085487E+03  0.41768493685E+02  0.31264498983E+03  0.00000000000E+00 0. -1.
        -11    1    3    3    0    0 -0.39718152333E+02 -0.29006300962E+01 -0.34835834913E+02  0.52910118823E+02  0.00000000000E+00 0.  1.
         12    1    3    3    0    0 -0.79145479900E+02 -0.67612879232E+02  0.33145496312E+02  0.10924345451E+03  0.00000000000E+00 0. -1.
          5    1    4    4  501    0  0.34537083058E+03 -0.13883954051E+03  0.15456523747E+03  0.40307559001E+03  0.47000000000E+01 0.  1.
         -5    1    4    4    0  501  0.34907993344E+03 -0.19065899572E+03  0.30415327089E+03  0.50073840953E+03  0.47000000000E+01 0.  1.
          1    1    1    2  502    0 -0.20490427642E+03 -0.55463128664E+02  0.19638222808E+04  0.19752619755E+04  0.00000000000E+00 0. -1.
          1    1    1    2  503    0  0.20364422866E+02  0.15823625437E+02 -0.61146348070E+03  0.61200709561E+03  0.00000000000E+00 0. -1.
<mgrwt>
<rscale>  0 0.74197987E+02</rscale>
<asrwt>0</asrwt>
<pdfrwt beam="1">  1        2 0.44554745E+00 0.21347244E+03</pdfrwt>
<pdfrwt beam="2">  1        2 0.17903650E+00 0.25789472E+02</pdfrwt>
<totfact> 0.94514528E+00</totfact>
</mgrwt>
</event>
<event>
13    1  0.1595792E-008  0.1468674E+03  0.7546771E-02  0.1286467E+00
          2   -1    0    0  502    0  0.00000000000E+00  0.00000000000E+00  0.10786816830E+04  0.10786816830E+04  0.00000000000E+00 0. -1.
          2   -1    0    0  503    0 -0.00000000000E+00 -0.00000000000E+00 -0.23255666648E+04  0.23255666648E+04  0.00000000000E+00 0. -1.
         24    2    1    2    0    0  0.20018976813E+03  0.61937779682E+02 -0.91336887992E+02  0.24206636377E+03  0.79633319318E+02 0.  0.
         25    2    1    2    0    0 -0.14971368075E+03  0.87859275817E+02 -0.55690152017E+02  0.22104738757E+03  0.12500846359E+03 0.  0.
         24    2    1    2    0    0  0.41282221429E+02 -0.15559423227E+03  0.95299281864E+02  0.20383640523E+03  0.80953937842E+02 0.  0.
        -11    1    5    5    0    0  0.11391564581E+02 -0.23428718733E+02 -0.14154984666E+02  0.29648544584E+02  0.00000000000E+00 0.  1.
         12    1    5    5    0    0  0.29890656847E+02 -0.13216551354E+03  0.10945426653E+03  0.17418786065E+03  0.00000000000E+00 0. -1.
        -13    1    3    3    0    0  0.12469179442E+03  0.13880743390E+02 -0.86596288783E+02  0.15244551769E+03  0.00000000000E+00 0.  1.
         14    1    3    3    0    0  0.75497973706E+02  0.48057036292E+02 -0.47405992087E+01  0.89620846078E+02  0.00000000000E+00 0. -1.
          5    1    4    4  501    0 -0.16096124025E+03  0.10543049136E+03 -0.51649323544E+02  0.19928334601E+03  0.47000000000E+01 0.  1.
         -5    1    4    4    0  501  0.11247559508E+02 -0.17571215541E+02 -0.40408284733E+01  0.21764041565E+02  0.47000000000E+01 0.  1.
          1    1    1    2  502    0  0.52203877397E+02  0.37412538052E+02  0.76696415391E+03  0.76964859267E+03  0.00000000000E+00 0. -1.
          1    1    1    2  503    0 -0.14396218621E+03 -0.31615361279E+02 -0.19621213776E+04  0.19676495985E+04  0.00000000000E+00 0. -1.
<mgrwt>
<rscale>  0 0.97121914E+02</rscale>
<asrwt>0</asrwt>
<pdfrwt beam="1">  1        2 0.15862966E+00 0.64225718E+02</pdfrwt>
<pdfrwt beam="2">  1        2 0.34199510E+00 0.14686743E+03</pdfrwt>
<totfact> 0.25745791E+01</totfact>
</mgrwt>
</event>
<event>
13    1  0.1595792E-008  0.6086904E+02  0.7546771E-02  0.1412779E+00
          4   -1    0    0  503    0 -0.00000000000E+00  0.00000000000E+00  0.18043521027E+03  0.18043521027E+03  0.00000000000E+00 0. -1.
          2   -1    0    0  502    0  0.00000000000E+00 -0.00000000000E+00 -0.25949519213E+04  0.25949519213E+04  0.00000000000E+00 0. -1.
         24    2    1    2    0    0 -0.43122260860E+02 -0.56783631415E+02  0.52361786814E+02  0.11728859112E+03  0.77012639931E+02 0.  0.
         25    2    1    2    0    0 -0.84183024104E+02 -0.59321081038E+02 -0.49435034093E+03  0.52020388023E+03  0.12499618081E+03 0.  0.
         24    2    1    2    0    0  0.70949258051E+02  0.13480689137E+03 -0.53718433668E+03  0.56396418643E+03  0.79258418007E+02 0.  0.
        -11    1    3    3    0    0  0.14369130383E+02 -0.32107415594E+02 -0.80559756254E+00  0.35185324093E+02  0.00000000000E+00 0.  1.
         12    1    3    3    0    0 -0.57491391243E+02 -0.24676215821E+02  0.53167384376E+02  0.82103267022E+02  0.00000000000E+00 0. -1.
        -13    1    5    5    0    0 -0.28614143171E+01  0.63826510443E+02 -0.27881508706E+03  0.28604171706E+03  0.00000000000E+00 0.  1.
         14    1    5    5    0    0  0.73810672368E+02  0.70980380926E+02 -0.25836924962E+03  0.27792246937E+03  0.00000000000E+00 0. -1.
          5    1    4    4  501    0 -0.59478043773E+02 -0.68146424538E+02 -0.15288886602E+03  0.17770387791E+03  0.47000000000E+01 0.  1.
         -5    1    4    4    0  501 -0.24704980330E+02  0.88253434995E+01 -0.34146147491E+03  0.34250000232E+03  0.47000000000E+01 0.  1.
          1    1    1    2  502    0  0.20719699157E+02 -0.57377195995E+02 -0.14939459485E+04  0.14951909396E+04  0.00000000000E+00 0. -1.
          3    1    1    2  503    0  0.35636327756E+02  0.38675017079E+02  0.58602128346E+02  0.78739534217E+02  0.00000000000E+00 0. -1.
<mgrwt>
<rscale>  0 0.56578273E+02</rscale>
<asrwt>0</asrwt>
<pdfrwt beam="2">  1        2 0.38161055E+00 0.60869042E+02</pdfrwt>
<pdfrwt beam="1">  1        4 0.26534592E-01 0.52589969E+02</pdfrwt>
<totfact> 0.30780825E+01</totfact>
</mgrwt>
</event>
<event>
13    1  0.1595792E-008  0.9882289E+02  0.7546771E-02  0.1333585E+00
          2   -1    0    0  502    0  0.00000000000E+00  0.00000000000E+00  0.84913690443E+03  0.84913690443E+03  0.00000000000E+00 0. -1.
          2   -1    0    0  503    0 -0.00000000000E+00 -0.00000000000E+00 -0.16586890219E+04  0.16586890219E+04  0.00000000000E+00 0. -1.
         24    2    1    2    0    0 -0.38936863201E+02  0.18403003112E+03 -0.18028932286E+03  0.27321171624E+03  0.82202617223E+02 0.  0.
         25    2    1    2    0    0  0.14695255042E+03 -0.10214740207E+03  0.69230519867E+02  0.22901251423E+03  0.12499889186E+03 0.  0.
         24    2    1    2    0    0 -0.13852528196E+02 -0.21781582398E+02  0.71412043318E+02  0.10927543149E+03  0.78581868953E+02 0.  0.
        -11    1    3    3    0    0  0.68071073728E+01  0.14146786340E+03 -0.13812637541E+03  0.19783424544E+03  0.00000000000E+00 0.  1.
         12    1    3    3    0    0 -0.45743970574E+02  0.42562167725E+02 -0.42162947452E+02  0.75377470793E+02  0.00000000000E+00 0. -1.
        -13    1    5    5    0    0 -0.65900380518E+01  0.28388834635E+02  0.12937546676E+02  0.31886276789E+02  0.00000000000E+00 0.  1.
         14    1    5    5    0    0 -0.72624901444E+01 -0.50170417033E+02  0.58474496642E+02  0.77389154705E+02  0.00000000000E+00 0. -1.
          5    1    4    4  501    0  0.11032539935E+03 -0.34941555872E+02  0.93207466484E+02  0.14866851676E+03  0.47000000000E+01 0. -1.
         -5    1    4    4    0  501  0.36627151076E+02 -0.67205846202E+02 -0.23976946617E+02  0.80343997466E+02  0.47000000000E+01 0. -1.
          1    1    1    2  502    0  0.45664437683E+01 -0.62067709795E+02  0.55965451583E+03  0.56310427995E+03  0.00000000000E+00 0. -1.
          1    1    1    2  503    0 -0.98729602796E+02  0.19666631437E+01 -0.13295598736E+04  0.13332219844E+04  0.00000000000E+00 0. -1.
<mgrwt>
<rscale>  0 0.78423773E+02</rscale>
<asrwt>0</asrwt>
<pdfrwt beam="1">  1        2 0.12487308E+00 0.62235464E+02</pdfrwt>
<pdfrwt beam="2">  1        2 0.24392485E+00 0.98822886E+02</pdfrwt>
<totfact> 0.76924517E+01</totfact>
</mgrwt>
</event>
<event>
13    1  0.1595792E-008  0.1488639E+03  0.7546771E-02  0.1305514E+00
          2   -1    0    0  502    0  0.00000000000E+00  0.00000000000E+00  0.26660130952E+04  0.26660130952E+04  0.00000000000E+00 0. -1.
          2   -1    0    0  503    0 -0.00000000000E+00 -0.00000000000E+00 -0.47676675172E+03  0.47676675172E+03  0.00000000000E+00 0. -1.
         24    2    1    2    0    0  0.48325442140E+02  0.71366167022E+02  0.42507045264E+02  0.13589204954E+03  0.96079769340E+02 0.  0.
         25    2    1    2    0    0  0.10659554177E+03 -0.63876115123E+02  0.60100363250E+03  0.62631584936E+03  0.12499363694E+03 0.  0.
         24    2    1    2    0    0 -0.10701792469E+03 -0.13696869369E+03  0.72196382353E+03  0.74688409509E+03  0.79942665419E+02 0.  0.
        -11    1    5    5    0    0 -0.94365874836E+01 -0.60611451727E+02  0.33491141952E+03  0.34048268119E+03  0.00000000000E+00 0.  1.
         12    1    5    5    0    0 -0.97581337203E+02 -0.76357241960E+02  0.38705240401E+03  0.40640141390E+03  0.00000000000E+00 0. -1.
        -13    1    3    3    0    0  0.12461052744E+02  0.66967217118E+02  0.64319937810E+02  0.93685326513E+02  0.00000000000E+00 0.  1.
         14    1    3    3    0    0  0.35864389396E+02  0.43989499040E+01 -0.21812892546E+02  0.42206723022E+02  0.00000000000E+00 0. -1.
          5    1    4    4  501    0  0.84340665009E+02  0.15647973787E+02  0.39686577017E+03  0.40605755305E+03  0.47000000000E+01 0.  1.
         -5    1    4    4    0  501  0.22254876763E+02 -0.79524088910E+02  0.20413786234E+03  0.22025829632E+03  0.47000000000E+01 0.  1.
          1    1    1    2  502    0  0.40453856042E+01  0.14048547284E+03  0.12229469290E+04  0.12309962324E+04  0.00000000000E+00 0. -1.
          1    1    1    2  503    0 -0.51948444831E+02 -0.11006831049E+02 -0.39917508682E+03  0.40269162046E+03  0.00000000000E+00 0. -1.
<mgrwt>
<rscale>  0 0.88909664E+02</rscale>
<asrwt>0</asrwt>
<pdfrwt beam="1">  1        2 0.39206074E+00 0.14886392E+03</pdfrwt>
<pdfrwt beam="2">  1        2 0.70112759E-01 0.53101707E+02</pdfrwt>
<totfact> 0.44648605E+01</totfact>
</mgrwt>
</event>
<event>
13    1  0.1595792E-008  0.1390917E+03  0.7546771E-02  0.1239047E+00
          2   -1    0    0  502    0  0.00000000000E+00  0.00000000000E+00  0.26667324092E+04  0.26667324092E+04  0.00000000000E+00 0. -1.
          2   -1    0    0  503    0 -0.00000000000E+00 -0.00000000000E+00 -0.25730241262E+04  0.25730241262E+04  0.00000000000E+00 0. -1.
         24    2    1    2    0    0  0.36579257803E+02 -0.28268374962E+02  0.28703986049E+02  0.93925332037E+02  0.76556554644E+02 0.  0.
         25    2    1    2    0    0  0.13235197666E+03  0.22216867340E+03  0.91248841225E+03  0.95662734778E+03  0.12499925945E+03 0.  0.
         24    2    1    2    0    0  0.61217085144E+02  0.12958993899E+02  0.22008720524E+03  0.23893393784E+03  0.68815562981E+02 0.  0.
        -11    1    3    3    0    0  0.43849026408E+02  0.94534759557E+01 -0.17680654836E+01  0.44891328563E+02  0.00000000000E+00 0.  1.
         12    1    3    3    0    0 -0.72697686052E+01 -0.37721850917E+02  0.30472051532E+02  0.49034003475E+02  0.00000000000E+00 0. -1.
        -13    1    5    5    0    0  0.56557344803E+02  0.37591683277E+02  0.16343866727E+03  0.17698606120E+03  0.00000000000E+00 0.  1.
         14    1    5    5    0    0  0.46597403409E+01 -0.24632689378E+02  0.56648537972E+02  0.61947876641E+02  0.00000000000E+00 0. -1.
          5    1    4    4  501    0  0.81692676559E+02  0.87670604959E+02  0.23257225373E+03  0.26167111339E+03  0.47000000000E+01 0.  1.
         -5    1    4    4    0  501  0.50659300100E+02  0.13449806844E+03  0.67991615852E+03  0.69495623439E+03  0.47000000000E+01 0.  1.
          1    1    1    2  502    0  0.10468266379E+02 -0.11084146296E+03  0.14324958249E+04  0.14368158208E+04  0.00000000000E+00 0. -1.
          1    1    1    2  503    0 -0.24061658598E+03 -0.96017829372E+02 -0.25000671455E+04  0.25134540969E+04  0.00000000000E+00 0. -1.
<mgrwt>
<rscale>  0 0.12248848E+03</rscale>
<asrwt>0</asrwt>
<pdfrwt beam="1">  1        2 0.39216653E+00 0.10786718E+03</pdfrwt>
<pdfrwt beam="2">  1        2 0.37838590E+00 0.13909170E+03</pdfrwt>
<totfact> 0.30587470E+00</totfact>
</mgrwt>
</event>
<event>
13    1  0.1595792E-008  0.1643855E+03  0.7546771E-02  0.1445228E+00
          2   -1    0    0  503    0  0.00000000000E+00  0.00000000000E+00  0.19475139720E+04  0.19475139720E+04  0.00000000000E+00 0. -1.
         -1   -1    0    0    0  501 -0.00000000000E+00 -0.00000000000E+00 -0.75811252706E+03  0.75811252706E+03  0.00000000000E+00 0.  1.
         24    2    1    2    0    0  0.11595702582E+02 -0.19919875489E+02  0.47015784241E+02  0.97695459262E+02  0.82478221579E+02 0.  0.
         25    2    1    2    0    0 -0.52073899734E+02 -0.17059397813E+03  0.78437952521E+03  0.81406312778E+03  0.12503415544E+03 0.  0.
         24    2    1    2    0    0  0.63194826495E+02  0.12756552780E+02  0.31881568802E+03  0.33461130113E+03  0.78517285852E+02 0.  0.
        -11    1    5    5    0    0 -0.23137841038E+01  0.81199360171E+01  0.18844387282E+03  0.18863292438E+03  0.00000000000E+00 0.  1.
         12    1    5    5    0    0  0.65508610599E+02  0.46366167627E+01  0.13037181521E+03  0.14597837675E+03  0.00000000000E+00 0. -1.
        -13    1    3    3    0    0 -0.34746926872E+02 -0.13920025200E+02  0.29980523416E+02  0.47957771142E+02  0.00000000000E+00 0.  1.
         14    1    3    3    0    0  0.46342629454E+02 -0.59998502894E+01  0.17035260825E+02  0.49737688121E+02  0.00000000000E+00 0. -1.
          5    1    4    4  502    0 -0.69982122243E+02 -0.47040679930E+02  0.43236942501E+03  0.44054027362E+03  0.47000000000E+01 0.  1.
         -5    1    4    4    0  502  0.17908222510E+02 -0.12355329820E+03  0.35201010021E+03  0.37352285416E+03  0.47000000000E+01 0.  1.
          1    1    1    2  503    0  0.15776598782E+01  0.15139031931E+02  0.73962528562E+03  0.73978188841E+03  0.00000000000E+00 0. -1.
         -2    1    1    2    0  501 -0.24294289222E+02  0.16261826891E+03 -0.70043483813E+03  0.71947472251E+03  0.00000000000E+00 0.  1.
<mgrwt>
<rscale>  0 0.50021134E+02</rscale>
<asrwt>0</asrwt>
<pdfrwt beam="1">  1        2 0.28639911E+00 0.15221015E+02</pdfrwt>
<pdfrwt beam="2">  1       -1 0.11148714E+00 0.16438548E+03</pdfrwt>
<totfact> 0.11193947E+01</totfact>
</mgrwt>
</event>
<event>
13    1  0.2229576E-008  0.6959351E+02  0.7546771E-02  0.1536227E+00
          2   -1    0    0  502    0  0.00000000000E+00  0.00000000000E+00  0.33316914065E+04  0.33316914065E+04  0.00000000000E+00 0. -1.
          2   -1    0    0  503    0 -0.00000000000E+00 -0.00000000000E+00 -0.19690233924E+04  0.19690233924E+04  0.00000000000E+00 0. -1.
         24    2    1    2    0    0 -0.89739526500E+03 -0.26982675923E+02 -0.60405045461E+03  0.10864179172E+04  0.96853562562E+02 0.  0.
         25    2    1    2    0    0  0.81371880181E+03  0.67860622250E+03  0.10958790848E+04  0.15294509004E+04  0.12499757837E+03 0.  0.
         24    2    1    2    0    0  0.46964695233E+02 -0.72064203747E+03  0.43209988818E+03  0.84762191469E+03  0.10110374929E+03 0.  0.
        -13    1    5    5    0    0  0.10021425649E+02 -0.54408130306E+03  0.28170481707E+03  0.61276626643E+03  0.00000000000E+00 0.  1.
         14    1    5    5    0    0  0.36943269583E+02 -0.17656073441E+03  0.15039507111E+03  0.23485564826E+03  0.00000000000E+00 0. -1.
        -13    1    3    3    0    0 -0.43146491458E+03 -0.44417045737E+01 -0.23308081711E+03  0.49041652558E+03  0.00000000000E+00 0.  1.
         14    1    3    3    0    0 -0.46593035042E+03 -0.22540971349E+02 -0.37096963749E+03  0.59600139159E+03  0.00000000000E+00 0. -1.
          5    1    4    4  501    0  0.53894692220E+03  0.38879706318E+03  0.62878557261E+03  0.91488815033E+03  0.47000000000E+01 0.  1.
         -5    1    4    4    0  501  0.27477187961E+03  0.28980915932E+03  0.46709351214E+03  0.61456275004E+03  0.47000000000E+01 0.  1.
          1    1    1    2  502    0  0.17716211028E+02  0.67295135446E+02  0.11367875565E+04  0.11389154701E+04  0.00000000000E+00 0. -1.
          1    1    1    2  503    0  0.18995556928E+02  0.17233554510E+01 -0.69804806067E+03  0.69830859665E+03  0.00000000000E+00 0. -1.
<mgrwt>
<rscale>  0 0.36433458E+02</rscale>
<asrwt>0</asrwt>
<pdfrwt beam="1">  1        2 0.48995462E+00 0.69593515E+02</pdfrwt>
<pdfrwt beam="2">  1        2 0.28956226E+00 0.19073572E+02</pdfrwt>
<totfact> 0.36117812E+00</totfact>
</mgrwt>
</event>
<event>
13    1  0.1595792E-008  0.5000112E+02  0.7546771E-02  0.1657947E+00
          2   -1    0    0  503    0  0.00000000000E+00  0.00000000000E+00  0.40429005980E+04  0.40429005980E+04  0.00000000000E+00 0. -1.
          2   -1    0    0  502    0 -0.00000000000E+00 -0.00000000000E+00 -0.77467424374E+03  0.77467424374E+03  0.00000000000E+00 0. -1.
         24    2    1    2    0    0  0.21791277676E+03  0.18563029784E+03 -0.13964175817E+03  0.32830440440E+03  0.79620195789E+02 0.  0.
         25    2    1    2    0    0 -0.15908932065E+03 -0.74209737049E+02  0.28124033964E+03  0.35431226493E+03  0.12499822168E+03 0.  0.
         24    2    1    2    0    0 -0.93402601422E+02 -0.59703176692E+02  0.16629291325E+03  0.21486343265E+03  0.78895161020E+02 0.  0.
        -11    1    5    5    0    0 -0.84067735799E+02 -0.74080656400E+02  0.11406457558E+03  0.15989388749E+03  0.00000000000E+00 0.  1.
         12    1    5    5    0    0 -0.93348656230E+01  0.14377479708E+02  0.52228337665E+02  0.54969545152E+02  0.00000000000E+00 0. -1.
        -11    1    3    3    0    0  0.10796263948E+03  0.14197415862E+03 -0.92905951456E+02  0.20110720787E+03  0.00000000000E+00 0.  1.
         12    1    3    3    0    0  0.10995013727E+03  0.43656139219E+02 -0.46735806709E+02  0.12719719654E+03  0.00000000000E+00 0. -1.
          5    1    4    4  501    0 -0.65596744488E+02 -0.72234269312E+02  0.22449369428E+03  0.24482694158E+03  0.47000000000E+01 0. -1.
         -5    1    4    4    0  501 -0.93492576166E+02 -0.19754677372E+01  0.56746645361E+02  0.10948532336E+03  0.47000000000E+01 0. -1.
          1    1    1    2  502    0  0.42281287213E+01 -0.11991031181E+02 -0.47961405507E+03  0.47978255879E+03  0.00000000000E+00 0. -1.
          1    1    1    2  503    0  0.30351016597E+02 -0.39726352917E+02  0.34399489146E+04  0.34403121810E+04  0.00000000000E+00 0. -1.
<mgrwt>
<rscale>  0 0.25214002E+02</rscale>
<asrwt>0</asrwt>
<pdfrwt beam="1">  1        2 0.59454420E+00 0.50001121E+02</pdfrwt>
<pdfrwt beam="2">  1        2 0.11392268E+00 0.12714633E+02</pdfrwt>
<totfact> 0.54214516E+00</totfact>
</mgrwt>
</event>
<event>
13    1  0.1595792E-008  0.2974114E+03  0.7546771E-02  0.1249689E+00
          2   -1    0    0  503    0  0.00000000000E+00  0.00000000000E+00  0.17666906714E+04  0.17666906714E+04  0.00000000000E+00 0. -1.
          2   -1    0    0  502    0 -0.00000000000E+00 -0.00000000000E+00 -0.38053872652E+04  0.38053872652E+04  0.00000000000E+00 0. -1.
         24    2    1    2    0    0  0.17776896561E+03  0.25920943175E+03 -0.95225078861E+03  0.10063995208E+04  0.85247265856E+02 0.  0.
         25    2    1    2    0    0  0.15563060965E+03 -0.32867117615E+03  0.99232752808E+02  0.39713666221E+03  0.12499904219E+03 0.  0.
         24    2    1    2    0    0  0.67348271368E+01  0.53431936875E+02  0.12548689775E+03  0.15911371222E+03  0.81669346360E+02 0.  0.
        -11    1    3    3    0    0 -0.88440160541E+01  0.46127154933E+01 -0.26997737585E+02  0.28781445392E+02  0.00000000000E+00 0.  1.
         12    1    3    3    0    0  0.18661298166E+03  0.25459671626E+03 -0.92525305102E+03  0.97761807537E+03  0.00000000000E+00 0. -1.
        -13    1    5    5    0    0 -0.58232605108E+01  0.69624909545E+02  0.65676381633E+02  0.95890174140E+02  0.00000000000E+00 0.  1.
         14    1    5    5    0    0  0.12558087648E+02 -0.16192972669E+02  0.59810516121E+02  0.63223538084E+02  0.00000000000E+00 0. -1.
          5    1    4    4  501    0  0.32910473682E+02 -0.11006291420E+02 -0.14739758839E+02  0.37994581449E+02  0.47000000000E+01 0. -1.
         -5    1    4    4    0  501  0.12272013597E+03 -0.31766488473E+03  0.11397251165E+03  0.35914208076E+03  0.47000000000E+01 0. -1.
          1    1    1    2  502    0 -0.29625739036E+03  0.47056331322E+01 -0.26516626357E+04  0.26681651594E+04  0.00000000000E+00 0. -1.
          1    1    1    2  503    0 -0.43877012032E+02  0.11324174392E+02  0.13404971799E+04  0.13412628819E+04  0.00000000000E+00 0. -1.
<mgrwt>
<rscale>  0 0.11609105E+03</rscale>
<asrwt>0</asrwt>
<pdfrwt beam="1">  1        2 0.25980745E+00 0.45314778E+02</pdfrwt>
<pdfrwt beam="2">  1        2 0.55961577E+00 0.29741140E+03</pdfrwt>
<totfact> 0.16161374E+00</totfact>
</mgrwt>
</event>
<event>
13    1  0.1595792E-008  0.2061280E+03  0.7546771E-02  0.1323365E+00
          2   -1    0    0  503    0  0.00000000000E+00  0.00000000000E+00  0.21751599845E+04  0.21751599845E+04  0.00000000000E+00 0. -1.
          2   -1    0    0  502    0 -0.00000000000E+00 -0.00000000000E+00 -0.19001513674E+04  0.19001513674E+04  0.00000000000E+00 0. -1.
         24    2    1    2    0    0  0.70673262192E+02 -0.18373525539E+03 -0.40854563273E+03  0.45869709777E+03  0.68848670410E+02 0.  0.
         25    2    1    2    0    0 -0.36314407892E+03 -0.12147295419E+02  0.73050908032E+02  0.39112670609E+03  0.12498994446E+03 0.  0.
         24    2    1    2    0    0  0.49059115806E+03  0.57391339175E+02  0.26422139713E+03  0.56575415210E+03  0.79318117304E+02 0.  0.
        -13    1    5    5    0    0  0.17807665093E+03 -0.13945869083E+02  0.11260500816E+03  0.21115318783E+03  0.00000000000E+00 0.  1.
         14    1    5    5    0    0  0.31251450714E+03  0.71337208259E+02  0.15161638897E+03  0.35460096427E+03  0.00000000000E+00 0. -1.
        -13    1    3    3    0    0  0.21291772443E+02 -0.91073380575E+01 -0.80915447925E+02  0.84164083154E+02  0.00000000000E+00 0.  1.
         14    1    3    3    0    0  0.49381489750E+02 -0.17462791733E+03 -0.32763018480E+03  0.37453301461E+03  0.00000000000E+00 0. -1.
          5    1    4    4  501    0 -0.20943495408E+02 -0.75797069836E+01  0.41600741168E+02  0.47421446874E+02  0.47000000000E+01 0.  1.
         -5    1    4    4    0  501 -0.34220058351E+03 -0.45675884355E+01  0.31450166864E+02  0.34370525922E+03  0.47000000000E+01 0.  1.
          1    1    1    2  502    0 -0.27733748484E+02  0.17231500413E+02 -0.11492180697E+04  0.11496818069E+04  0.00000000000E+00 0. -1.
          1    1    1    2  503    0 -0.17038659286E+03  0.12125971122E+03  0.14955000143E+04  0.15100515890E+04  0.00000000000E+00 0. -1.
<mgrwt>
<rscale>  0 0.82038262E+02</rscale>
<asrwt>0</asrwt>
<pdfrwt beam="1">  1        2 0.31987647E+00 0.20612796E+03</pdfrwt>
<pdfrwt beam="2">  1        2 0.27943402E+00 0.32650963E+02</pdfrwt>
<totfact> 0.12507751E+01</totfact>
</mgrwt>
</event>
<event>
13    1  0.1595792E-008  0.1267502E+03  0.7546771E-02  0.1242231E+00
          2   -1    0    0  503    0  0.00000000000E+00  0.00000000000E+00  0.24267785300E+04  0.24267785300E+04  0.00000000000E+00 0. -1.
          2   -1    0    0  502    0 -0.00000000000E+00 -0.00000000000E+00 -0.12630131643E+04  0.12630131643E+04  0.00000000000E+00 0. -1.
         24    2    1    2    0    0  0.22218745030E+02 -0.45124345634E+02 -0.24780442839E+03  0.26602133055E+03  0.82646442020E+02 0.  0.
         25    2    1    2    0    0 -0.16230835193E+03  0.23942448746E+03 -0.91330845668E+02  0.32807773615E+03  0.12500236512E+03 0.  0.
         24    2    1    2    0    0  0.22055470033E+02 -0.30237246781E+02  0.51973163551E+02  0.10583460090E+03  0.84255671424E+02 0.  0.
        -11    1    3    3    0    0  0.36401188871E+02 -0.18685216344E+01 -0.43715697486E+02  0.56917485284E+02  0.00000000000E+00 0.  1.
         12    1    3    3    0    0 -0.14182443842E+02 -0.43255824000E+02 -0.20408873091E+03  0.20910384527E+03  0.00000000000E+00 0. -1.
        -13    1    5    5    0    0  0.48406391340E+02 -0.51094478386E+01  0.49370312566E+02  0.69330461867E+02  0.00000000000E+00 0.  1.
         14    1    5    5    0    0 -0.26350921307E+02 -0.25127798942E+02  0.26028509852E+01  0.36504139035E+02  0.00000000000E+00 0. -1.
          5    1    4    4  501    0 -0.34945769087E+02 -0.73268840676E+01 -0.97493295017E+00  0.36026802543E+02  0.47000000000E+01 0. -1.
         -5    1    4    4    0  501 -0.12736258284E+03  0.24675137152E+03 -0.90355912717E+02  0.29205093361E+03  0.47000000000E+01 0. -1.
          1    1    1    2  502    0  0.97734574997E+02 -0.37648940702E+02 -0.76404403743E+03  0.77118919924E+03  0.00000000000E+00 0. -1.
          1    1    1    2  503    0  0.20299561870E+02 -0.12641395434E+03  0.22149715136E+04  0.22186688275E+04  0.00000000000E+00 0. -1.
<mgrwt>
<rscale>  0 0.12052648E+03</rscale>
<asrwt>0</asrwt>
<pdfrwt beam="1">  1        2 0.35687920E+00 0.12675015E+03</pdfrwt>
<pdfrwt beam="2">  1        2 0.18573723E+00 0.11460841E+03</pdfrwt>
<totfact> 0.17987862E+01</totfact>
</mgrwt>
</event>
<event>
13    1  0.1595792E-008  0.3597289E+02  0.7546771E-02  0.1712176E+00
          2   -1    0    0  503    0  0.00000000000E+00  0.00000000000E+00  0.12681260767E+04  0.12681260767E+04  0.00000000000E+00 0. -1.
         -1   -1    0    0    0  501 -0.00000000000E+00 -0.00000000000E+00 -0.33536945558E+03  0.33536945558E+03  0.00000000000E+00 0.  1.
         24    2    1    2    0    0 -0.31412187100E+02 -0.16715131063E+02 -0.52097164249E+02  0.88528718419E+02  0.62105542082E+02 0.  0.
         25    2    1    2    0    0 -0.12133796239E+02  0.38369332925E+02  0.50768078732E+03  0.52438827045E+03  0.12499536651E+03 0.  0.
         24    2    1    2    0    0  0.36817698155E+02 -0.46490531240E+02  0.21611153284E+03  0.23771379543E+03  0.79288974740E+02 0.  0.
        -11    1    3    3    0    0  0.16052265489E+02 -0.17969978936E+02 -0.17473755372E+02  0.29764534216E+02  0.00000000000E+00 0.  1.
         12    1    3    3    0    0 -0.47464452589E+02  0.12548478736E+01 -0.34623408878E+02  0.58764184203E+02  0.00000000000E+00 0. -1.
        -13    1    5    5    0    0  0.53692604157E+02 -0.55786061716E+02  0.14933912689E+03  0.16821758303E+03  0.00000000000E+00 0.  1.
         14    1    5    5    0    0 -0.16874906002E+02  0.92955304755E+01  0.66772405959E+02  0.69496212392E+02  0.00000000000E+00 0. -1.
          5    1    4    4  502    0 -0.39532084315E+02  0.40176151588E+02  0.93530231773E+02  0.10930188975E+03  0.47000000000E+01 0. -1.
         -5    1    4    4    0  502  0.27398288076E+02 -0.18068186629E+01  0.41415055555E+03  0.41508638070E+03  0.47000000000E+01 0. -1.
          1    1    1    2  503    0  0.70213449093E+01 -0.11154735600E+02  0.50555971922E+03  0.50573150694E+03  0.00000000000E+00 0. -1.
         -2    1    1    2    0  501 -0.29305972507E+00  0.35991064977E+02 -0.24449825399E+03  0.24713324108E+03  0.00000000000E+00 0.  1.
<mgrwt>
<rscale>  0 0.21774828E+02</rscale>
<asrwt>0</asrwt>
<pdfrwt beam="1">  1        2 0.18648913E+00 0.13180569E+02</pdfrwt>
<pdfrwt beam="2">  1       -1 0.49319038E-01 0.35972888E+02</pdfrwt>
<totfact> 0.11835235E+02</totfact>
</mgrwt>
</event>
<event>
13    1  0.1595792E-008  0.4369879E+03  0.7546771E-02  0.1202516E+00
          2   -1    0    0  502    0  0.00000000000E+00  0.00000000000E+00  0.14520534019E+04  0.14520534019E+04  0.00000000000E+00 0. -1.
          2   -1    0    0  503    0 -0.00000000000E+00 -0.00000000000E+00 -0.18909964311E+04  0.18909964311E+04  0.00000000000E+00 0. -1.
         24    2    1    2    0    0  0.12159655860E+03 -0.57622825525E+02 -0.45199366475E+02  0.16365600257E+03  0.81450545502E+02 0.  0.
         25    2    1    2    0    0 -0.44773798130E+03  0.46839813530E+03 -0.33183035480E+03  0.73864326958E+03  0.12496552433E+03 0.  0.
         24    2    1    2    0    0  0.36036770908E+03 -0.23263409731E+02  0.44984037855E+03  0.58253660879E+03  0.81157023301E+02 0.  0.
        -11    1    3    3    0    0  0.78092198434E+01  0.17553856961E+02 -0.13950658966E+02  0.23743266295E+02  0.00000000000E+00 0.  1.
         12    1    3    3    0    0  0.11378733876E+03 -0.75176682486E+02 -0.31248707509E+02  0.13991273628E+03  0.00000000000E+00 0. -1.
        -11    1    5    5    0    0  0.28452961879E+03  0.15227849370E+02  0.35311495957E+03  0.45373909468E+03  0.00000000000E+00 0.  1.
         12    1    5    5    0    0  0.75838090288E+02 -0.38491259101E+02  0.96725418977E+02  0.12879751411E+03  0.00000000000E+00 0. -1.
          5    1    4    4  501    0 -0.24180303615E+03  0.29582687223E+03 -0.13387352560E+03  0.40487832429E+03  0.47000000000E+01 0.  1.
         -5    1    4    4    0  501 -0.20593494515E+03  0.17257126307E+03 -0.19795682921E+03  0.33376494529E+03  0.47000000000E+01 0.  1.
          1    1    1    2  502    0 -0.77769957468E+02 -0.41281502216E+03  0.60707950260E+03  0.73824787930E+03  0.00000000000E+00 0. -1.
          1    1    1    2  503    0  0.43543671084E+02  0.25303122114E+02 -0.11188331890E+04  0.11199660728E+04  0.00000000000E+00 0. -1.
<mgrwt>
<rscale>  0 0.14834907E+03</rscale>
<asrwt>0</asrwt>
<pdfrwt beam="1">  1        2 0.21353727E+00 0.43698787E+03</pdfrwt>
<pdfrwt beam="2">  1        2 0.27808771E+00 0.50361685E+02</pdfrwt>
<totfact> 0.26358374E+01</totfact>
</mgrwt>
</event>
<event>
13    1  0.1595792E-008  0.1074980E+03  0.7546771E-02  0.1290367E+00
         -3   -1    0    0    0  501 -0.00000000000E+00  0.00000000000E+00  0.22292307497E+03  0.22292307497E+03  0.00000000000E+00 0.  1.
          2   -1    0    0  503    0  0.00000000000E+00 -0.00000000000E+00 -0.21442178095E+04  0.21442178095E+04  0.00000000000E+00 0. -1.
         24    2    1    2    0    0  0.61775272774E+02  0.29967339124E+02 -0.10780195394E+03  0.14936204583E+03  0.77288639016E+02 0.  0.
         25    2    1    2    0    0  0.89272587561E+02  0.31793665885E+03 -0.23349277512E+03  0.42331249454E+03  0.12498511140E+03 0.  0.
         24    2    1    2    0    0 -0.15113058099E+03 -0.15825012657E+03 -0.82575420080E+03  0.85743031982E+03  0.73710230924E+02 0.  0.
        -13    1    3    3    0    0  0.29293948363E+02 -0.25292857401E+02 -0.33076011347E+02  0.50910574273E+02  0.00000000000E+00 0.  1.
         14    1    3    3    0    0  0.32481324411E+02  0.55260196525E+02 -0.74725942591E+02  0.98451471556E+02  0.00000000000E+00 0. -1.
        -13    1    5    5    0    0 -0.14562128398E+03 -0.11475496908E+03 -0.70470356248E+03  0.72868468644E+03  0.00000000000E+00 0.  1.
         14    1    5    5    0    0 -0.55092970150E+01 -0.43495157482E+02 -0.12105063831E+03  0.12874563338E+03  0.00000000000E+00 0. -1.
          5    1    4    4  502    0  0.43746011514E+02  0.15214406961E+02 -0.24380007273E+02  0.52551559988E+02  0.47000000000E+01 0. -1.
         -5    1    4    4    0  502  0.45526576047E+02  0.30272225188E+03 -0.20911276785E+03  0.37076093455E+03  0.47000000000E+01 0. -1.
          1    1    1    2  503    0 -0.91411903998E+01 -0.84097730333E+02 -0.81197650970E+03  0.81637114226E+03  0.00000000000E+00 0. -1.
         -4    1    1    2    0  501  0.92239110580E+01 -0.10555614107E+03  0.57730705023E+02  0.12066488203E+03  0.00000000000E+00 0.  1.
<mgrwt>
<rscale>  0 0.95360295E+02</rscale>
<asrwt>0</asrwt>
<pdfrwt beam="2">  1        2 0.31532614E+00 0.84593083E+02</pdfrwt>
<pdfrwt beam="1">  1       -3 0.32782806E-01 0.10749798E+03</pdfrwt>
<totfact> 0.42992902E+01</totfact>
</mgrwt>
</event>
<event>
13    1  0.1595792E-008  0.2924949E+03  0.7546771E-02  0.1341673E+00
          2   -1    0    0  503    0  0.00000000000E+00  0.00000000000E+00  0.98405827080E+03  0.98405827080E+03  0.00000000000E+00 0. -1.
          2   -1    0    0  502    0 -0.00000000000E+00 -0.00000000000E+00 -0.16464438172E+04  0.16464438172E+04  0.00000000000E+00 0. -1.
         24    2    1    2    0    0  0.77580243891E+02  0.38953595306E+02 -0.10721150359E+04  0.10785917899E+04  0.79959502929E+02 0.  0.
         25    2    1    2    0    0 -0.76558073060E+02 -0.27955988487E+03 -0.10053906859E+03  0.33128342600E+03  0.12500294498E+03 0.  0.
         24    2    1    2    0    0  0.14977285954E+03 -0.28023842015E+02  0.21789942069E+02  0.17384187355E+03  0.80801919824E+02 0.  0.
        -11    1    5    5    0    0  0.12817113092E+03 -0.53526973955E+02  0.20414804563E+02  0.14039138145E+03  0.00000000000E+00 0.  1.
         12    1    5    5    0    0  0.21601728628E+02  0.25503131940E+02  0.13751375060E+01  0.33450492098E+02  0.00000000000E+00 0. -1.
        -11    1    3    3    0    0 -0.11213754751E+01  0.16535753427E+02 -0.40836203981E+02  0.44071353280E+02  0.00000000000E+00 0.  1.
         12    1    3    3    0    0  0.78701619366E+02  0.22417841879E+02 -0.10312788319E+04  0.10345204366E+04  0.00000000000E+00 0. -1.
          5    1    4    4  501    0 -0.42255390870E+02 -0.70115398380E+02 -0.85498645062E+02  0.11846432144E+03  0.47000000000E+01 0.  1.
         -5    1    4    4    0  501 -0.34302682190E+02 -0.20944448649E+03 -0.15040423524E+02  0.21281910456E+03  0.47000000000E+01 0.  1.
          1    1    1    2  502    0  0.15044575150E+02  0.12561475157E+02 -0.24843996526E+03  0.24921185012E+03  0.00000000000E+00 0. -1.
          1    1    1    2  503    0 -0.16583960553E+03  0.25606865642E+03  0.73691858134E+03  0.79757314842E+03  0.00000000000E+00 0. -1.
<mgrwt>
<rscale>  0 0.75714437E+02</rscale>
<asrwt>0</asrwt>
<pdfrwt beam="1">  1        2 0.14471445E+00 0.29249492E+03</pdfrwt>
<pdfrwt beam="2">  1        2 0.24212409E+00 0.19599232E+02</pdfrwt>
<totfact> 0.70307045E+01</totfact>
</mgrwt>
</event>
<event>
13    1  0.1595792E-008  0.1404310E+03  0.7546771E-02  0.1429889E+00
          2   -1    0    0  502    0  0.00000000000E+00  0.00000000000E+00  0.28301653649E+04  0.28301653649E+04  0.00000000000E+00 0. -1.
          2   -1    0    0  503    0 -0.00000000000E+00 -0.00000000000E+00 -0.35786049588E+04  0.35786049588E+04  0.00000000000E+00 0. -1.
         24    2    1    2    0    0 -0.23518721537E+03 -0.49914293968E+02 -0.55245663674E+03  0.60789007594E+03  0.80731319406E+02 0.  0.
         25    2    1    2    0    0  0.58908590705E+02 -0.32401329654E+03 -0.35508002738E+03  0.50016163485E+03  0.12499998695E+03 0.  0.
         24    2    1    2    0    0  0.67248953596E+02  0.48807814218E+03 -0.16359470715E+03  0.52468109780E+03  0.76054793048E+02 0.  0.
        -11    1    5    5    0    0 -0.10838386932E+02  0.15394014331E+03 -0.66725316280E+02  0.16812883806E+03  0.00000000000E+00 0.  1.
         12    1    5    5    0    0  0.78087340528E+02  0.33413799886E+03 -0.96869390875E+02  0.35655225974E+03  0.00000000000E+00 0. -1.
        -11    1    3    3    0    0 -0.34294196075E+01 -0.71123202055E+01 -0.72337810063E+00  0.79290159179E+01  0.00000000000E+00 0.  1.
         12    1    3    3    0    0 -0.23175779576E+03 -0.42801973762E+02 -0.55173325864E+03  0.59996106002E+03  0.00000000000E+00 0. -1.
          5    1    4    4  501    0 -0.25530395102E+02 -0.17064256330E+03 -0.21613262939E+03  0.27659734086E+03  0.47000000000E+01 0.  1.
         -5    1    4    4    0  501  0.84438985807E+02 -0.15337073324E+03 -0.13894739798E+03  0.22356429399E+03  0.47000000000E+01 0.  1.
          1    1    1    2  502    0  0.10342032570E+03 -0.94964433021E+02  0.25473864837E+04  0.25512530068E+04  0.00000000000E+00 0. -1.
          1    1    1    2  503    0  0.56093453604E+01 -0.19186118648E+02 -0.22246947063E+04  0.22247845083E+04  0.00000000000E+00 0. -1.
<mgrwt>
<rscale>  0 0.52982231E+02</rscale>
<asrwt>0</asrwt>
<pdfrwt beam="1">  1        2 0.41620079E+00 0.14043101E+03</pdfrwt>
<pdfrwt beam="2">  1        2 0.52626543E+00 0.19989295E+02</pdfrwt>
<totfact> 0.10053255E+00</totfact>
</mgrwt>
</event>
<event>
13    1  0.1595792E-008  0.3372197E+02  0.7546771E-02  0.1708785E+00
          2   -1    0    0  502    0  0.00000000000E+00  0.00000000000E+00  0.14984059287E+04  0.14984059287E+04  0.00000000000E+00 0. -1.
          2   -1    0    0  503    0 -0.00000000000E+00 -0.00000000000E+00 -0.26655910299E+04  0.26655910299E+04  0.00000000000E+00 0. -1.
         24    2    1    2    0    0  0.14627520009E+02 -0.40953030436E+02 -0.15782811181E+04  0.15809201421E+04  0.80287564192E+02 0.  0.
         25    2    1    2    0    0 -0.96528420371E+02  0.13838484560E+02 -0.27622093210E+02  0.16092521411E+03  0.12499881962E+03 0.  0.
         24    2    1    2    0    0  0.57058017167E+02  0.62391142340E+02  0.24164931026E+03  0.26898846633E+03  0.82535652311E+02 0.  0.
        -11    1    3    3    0    0  0.12904922938E+02  0.23500821161E+02 -0.44841627593E+03  0.44921707687E+03  0.00000000000E+00 0.  1.
         12    1    3    3    0    0  0.17225970717E+01 -0.64453851596E+02 -0.11298648421E+04  0.11317030652E+04  0.00000000000E+00 0. -1.
        -13    1    5    5    0    0 -0.42847858904E+01  0.34240499092E+02  0.15688592985E+03  0.16063612966E+03  0.00000000000E+00 0.  1.
         14    1    5    5    0    0  0.61342803058E+02  0.28150643248E+02  0.84763380416E+02  0.10835233667E+03  0.00000000000E+00 0. -1.
          5    1    4    4  501    0 -0.27156820048E+02 -0.45397810320E+02  0.21401321311E+02  0.57258716461E+02  0.47000000000E+01 0.  1.
         -5    1    4    4    0  501 -0.69371600323E+02  0.59236294880E+02 -0.49023414522E+02  0.10366649764E+03  0.47000000000E+01 0.  1.
          1    1    1    2  502    0 -0.14991506313E+01 -0.14233755449E+02  0.11747818095E+04  0.11748689915E+04  0.00000000000E+00 0. -1.
          1    1    1    2  503    0  0.26342033826E+02 -0.21042841015E+02 -0.97771300974E+03  0.97829414458E+03  0.00000000000E+00 0. -1.
<mgrwt>
<rscale>  0 0.21969187E+02</rscale>
<asrwt>0</asrwt>
<pdfrwt beam="1">  1        2 0.22035382E+00 0.14312486E+02</pdfrwt>
<pdfrwt beam="2">  1        2 0.39199867E+00 0.33721967E+02</pdfrwt>
<totfact> 0.14959777E+01</totfact>
</mgrwt>
</event>
<event>
13    1  0.1595792E-008  0.7869097E+02  0.7546771E-02  0.1368676E+00
          2   -1    0    0  503    0  0.00000000000E+00  0.00000000000E+00  0.11117033887E+04  0.11117033887E+04  0.00000000000E+00 0. -1.
          2   -1    0    0  502    0 -0.00000000000E+00 -0.00000000000E+00 -0.13963339758E+04  0.13963339758E+04  0.00000000000E+00 0. -1.
         24    2    1    2    0    0  0.66990821075E+02 -0.20578251920E+02 -0.11834490470E+03  0.15909808265E+03  0.79971550408E+02 0.  0.
         25    2    1    2    0    0 -0.27343591042E+03  0.32284063369E+02  0.81525568806E+02  0.31317921293E+03  0.12500137274E+03 0.  0.
         24    2    1    2    0    0  0.72342260894E+02 -0.34335860024E+02  0.29946662245E+03  0.32123529773E+03  0.84258557755E+02 0.  0.
        -11    1    5    5    0    0 -0.94082287484E+01  0.38765270874E+01  0.11929432607E+03  0.11972751756E+03  0.00000000000E+00 0.  1.
         12    1    5    5    0    0  0.81750489642E+02 -0.38212387111E+02  0.18017229638E+03  0.20150778017E+03  0.00000000000E+00 0. -1.
        -13    1    3    3    0    0  0.32029581434E+02 -0.50661786482E+02 -0.61196326724E+02  0.85659214921E+02  0.00000000000E+00 0.  1.
         14    1    3    3    0    0  0.34961239641E+02  0.30083534562E+02 -0.57148577975E+02  0.73438867731E+02  0.00000000000E+00 0. -1.
          5    1    4    4  501    0 -0.89699853827E+02  0.58437074698E+02 -0.72370901391E+01  0.10740307700E+03  0.47000000000E+01 0.  1.
         -5    1    4    4    0  501 -0.18373605660E+03 -0.26153011329E+02  0.88762658945E+02  0.20577613593E+03  0.47000000000E+01 0.  1.
          1    1    1    2  502    0  0.56694812631E+02  0.12059643329E+02 -0.11275389618E+04  0.11290278328E+04  0.00000000000E+00 0. -1.
          1    1    1    2  503    0  0.77408015824E+02  0.10570405246E+02  0.58026108815E+03  0.58549693834E+03  0.00000000000E+00 0. -1.
<mgrwt>
<rscale>  0 0.67536532E+02</rscale>
<asrwt>0</asrwt>
<pdfrwt beam="1">  1        2 0.16348579E+00 0.78690967E+02</pdfrwt>
<pdfrwt beam="2">  1        2 0.20534323E+00 0.57963236E+02</pdfrwt>
<totfact> 0.75337767E+01</totfact>
</mgrwt>
</event>
<event>
13    1  0.1595792E-008  0.9564688E+02  0.7546771E-02  0.1303867E+00
          4   -1    0    0  503    0 -0.00000000000E+00  0.00000000000E+00  0.46968719609E+03  0.46968719609E+03  0.00000000000E+00 0. -1.
          2   -1    0    0  502    0  0.00000000000E+00 -0.00000000000E+00 -0.14620739181E+04  0.14620739181E+04  0.00000000000E+00 0. -1.
         24    2    1    2    0    0  0.59060085688E+02  0.39237488363E+01  0.15028519945E+03  0.18577880349E+03  0.91785800245E+02 0.  0.
         25    2    1    2    0    0 -0.42828731896E+02  0.17197632521E+02 -0.19195144186E+02  0.13462807733E+03  0.12500482713E+03 0.  0.
         24    2    1    2    0    0  0.64052582808E+02  0.28228968319E+02 -0.17489141973E+03  0.20367696750E+03  0.77444756948E+02 0.  0.
        -11    1    3    3    0    0  0.30220156058E+02 -0.23211005854E+02  0.91426873260E+01  0.39186698719E+02  0.00000000000E+00 0.  1.
         12    1    3    3    0    0  0.28839929630E+02  0.27134754690E+02  0.14114251212E+03  0.14659210477E+03  0.00000000000E+00 0. -1.
        -11    1    5    5    0    0  0.75010573060E+02  0.10462883181E+01 -0.12250756848E+03  0.14365161024E+03  0.00000000000E+00 0.  1.
         12    1    5    5    0    0 -0.10957990253E+02  0.27182680001E+02 -0.52383851251E+02  0.60025357261E+02  0.00000000000E+00 0. -1.
          5    1    4    4  501    0 -0.29814979789E+02 -0.49314723215E+02  0.13287551241E+02  0.59325575965E+02  0.47000000000E+01 0. -1.
         -5    1    4    4    0  501 -0.13013752107E+02  0.66512355736E+02 -0.32482695426E+02  0.75302501364E+02  0.47000000000E+01 0. -1.
          1    1    1    2  502    0 -0.26201551184E+02 -0.11349505956E+03 -0.11674684054E+04  0.11732647303E+04  0.00000000000E+00 0. -1.
          3    1    1    2  503    0 -0.54082385416E+02  0.64144709879E+02  0.21888304781E+03  0.23441253558E+03  0.00000000000E+00 0. -1.
<mgrwt>
<rscale>  0 0.89581855E+02</rscale>
<asrwt>0</asrwt>
<pdfrwt beam="2">  1        2 0.21501087E+00 0.95646876E+02</pdfrwt>
<pdfrwt beam="1">  1        4 0.69071647E-01 0.83901420E+02</pdfrwt>
<totfact> 0.16521955E+01</totfact>
</mgrwt>
</event>
<event>
13    1  0.1595792E-008  0.1324924E+03  0.7546771E-02  0.1227393E+00
          2   -1    0    0  503    0  0.00000000000E+00  0.00000000000E+00  0.27217130143E+04  0.27217130143E+04  0.00000000000E+00 0. -1.
          2   -1    0    0  502    0 -0.00000000000E+00 -0.00000000000E+00 -0.15822997745E+04  0.15822997745E+04  0.00000000000E+00 0. -1.
         24    2    1    2    0    0 -0.96825525510E+02 -0.20679108216E+02 -0.31278390305E+03  0.33800998402E+03  0.81327556134E+02 0.  0.
         25    2    1    2    0    0 -0.20257061670E+02  0.26947897286E+03 -0.30291584045E+03  0.42475566432E+03  0.12502040881E+03 0.  0.
         24    2    1    2    0    0  0.13563936168E+03 -0.74865544042E+02  0.63035004737E+03  0.65412735728E+03  0.80861184785E+02 0.  0.
        -11    1    3    3    0    0 -0.29121855240E+02 -0.39630652923E+02 -0.19252897980E+03  0.19871104440E+03  0.00000000000E+00 0.  1.
         12    1    3    3    0    0 -0.67703670269E+02  0.18951544706E+02 -0.12025492324E+03  0.13929893962E+03  0.00000000000E+00 0. -1.
        -11    1    5    5    0    0  0.56936366817E+02  0.87632293923E+01  0.26346520180E+03  0.26968955600E+03  0.00000000000E+00 0.  1.
         12    1    5    5    0    0  0.78702994864E+02 -0.83628773435E+02  0.36688484557E+03  0.38443780128E+03  0.00000000000E+00 0. -1.
          5    1    4    4  501    0 -0.70839114711E+02  0.11749270120E+03 -0.13146660881E+03  0.19007439134E+03  0.47000000000E+01 0.  1.
         -5    1    4    4    0  501  0.50582053041E+02  0.15198627165E+03 -0.17144923164E+03  0.23468127299E+03  0.47000000000E+01 0.  1.
          1    1    1    2  502    0 -0.10460451165E+03 -0.73137302721E+02 -0.87435080604E+03  0.88361784779E+03  0.00000000000E+00 0. -1.
          1    1    1    2  503    0  0.86047737153E+02 -0.10079701788E+03  0.19991137420E+04  0.20035019354E+04  0.00000000000E+00 0. -1.
<mgrwt>
<rscale>  0 0.13004199E+03</rscale>
<asrwt>0</asrwt>
<pdfrwt beam="1">  1        2 0.40025191E+00 0.13249244E+03</pdfrwt>
<pdfrwt beam="2">  1        2 0.23269114E+00 0.12763686E+03</pdfrwt>
<totfact> 0.86602342E+00</totfact>
</mgrwt>
</event>
<event>
13    1  0.1595792E-008  0.1169346E+03  0.7546771E-02  0.1309811E+00
          2   -1    0    0  503    0  0.00000000000E+00  0.00000000000E+00  0.11113291860E+04  0.11113291860E+04  0.00000000000E+00 0. -1.
          2   -1    0    0  502    0 -0.00000000000E+00 -0.00000000000E+00 -0.62433802334E+03  0.62433802334E+03  0.00000000000E+00 0. -1.
         24    2    1    2    0    0  0.14243275297E+03  0.97911615174E+01  0.80183706144E+02  0.18072717143E+03  0.76484820705E+02 0.  0.
         25    2    1    2    0    0 -0.64820942527E+02 -0.34964598752E+02  0.12676698707E+03  0.19264341553E+03  0.12496935136E+03 0.  0.
         24    2    1    2    0    0 -0.24301899663E+02 -0.22640700385E+02  0.24989018679E+03  0.26345096496E+03  0.76538368430E+02 0.  0.
        -11    1    5    5    0    0  0.20181847639E+02 -0.65707187670E+01  0.16427015174E+03  0.16563563648E+03  0.00000000000E+00 0.  1.
         12    1    5    5    0    0 -0.44483747302E+02 -0.16069981618E+02  0.85620035048E+02  0.97815328476E+02  0.00000000000E+00 0. -1.
        -11    1    3    3    0    0  0.55890331164E+01 -0.17814179245E+02  0.23607402725E+02  0.30098035431E+02  0.00000000000E+00 0.  1.
         12    1    3    3    0    0  0.13684371986E+03  0.27605340763E+02  0.56576303418E+02  0.15062913600E+03  0.00000000000E+00 0. -1.
          5    1    4    4  501    0 -0.35147382604E+02  0.43514018348E+02  0.75943580437E+02  0.94436887424E+02  0.47000000000E+01 0. -1.
         -5    1    4    4    0  501 -0.29673559922E+02 -0.78478617100E+02  0.50823406630E+02  0.98206528103E+02  0.47000000000E+01 0. -1.
          1    1    1    2  502    0 -0.40077162166E+02  0.11146004418E+03 -0.52586685943E+03  0.53904125466E+03  0.00000000000E+00 0. -1.
          1    1    1    2  503    0 -0.13232748619E+02 -0.63645906556E+02  0.55601714205E+03  0.55980440272E+03  0.00000000000E+00 0. -1.
<mgrwt>
<rscale>  0 0.87186935E+02</rscale>
<asrwt>0</asrwt>
<pdfrwt beam="1">  1        2 0.16343076E+00 0.65006977E+02</pdfrwt>
<pdfrwt beam="2">  1        2 0.91814416E-01 0.11693455E+03</pdfrwt>
<totfact> 0.20981613E+02</totfact>
</mgrwt>
</event>
<event>
13    1  0.1595792E-008  0.1791957E+02  0.7546771E-02  0.1792590E+00
          2   -1    0    0  502    0  0.00000000000E+00  0.00000000000E+00  0.33269269823E+03  0.33269269823E+03  0.00000000000E+00 0. -1.
          2   -1    0    0  503    0 -0.00000000000E+00 -0.00000000000E+00 -0.95657994395E+03  0.95657994395E+03  0.00000000000E+00 0. -1.
         24    2    1    2    0    0 -0.86096713216E+02  0.56315509988E+01 -0.55482259157E+03  0.56782662511E+03  0.84584925760E+02 0.  0.
         25    2    1    2    0    0  0.79212942484E+02 -0.26485191014E+02 -0.23856673810E+03  0.28198465881E+03  0.12500041471E+03 0.  0.
         24    2    1    2    0    0  0.54990541082E+01  0.24087218841E+02  0.18389777098E+03  0.20247021073E+03  0.81026923629E+02 0.  0.
        -11    1    3    3    0    0 -0.56306046826E+02 -0.19302949923E+02 -0.15363547307E+03  0.16476296116E+03  0.00000000000E+00 0.  1.
         12    1    3    3    0    0 -0.29790666390E+02  0.24934500922E+02 -0.40118711850E+03  0.40306366395E+03  0.00000000000E+00 0. -1.
        -13    1    5    5    0    0  0.20445237903E+02  0.28334219018E+02  0.18363561011E+03  0.18693012872E+03  0.00000000000E+00 0.  1.
         14    1    5    5    0    0 -0.14946183795E+02 -0.42470001777E+01  0.26216086614E+00  0.15540082010E+02  0.00000000000E+00 0. -1.
          5    1    4    4  501    0  0.10103909929E+03 -0.45048629345E+02 -0.13593410121E+03  0.17532383884E+03  0.47000000000E+01 0.  1.
         -5    1    4    4    0  501 -0.21826156809E+02  0.18563438332E+02 -0.10263263688E+03  0.10666081997E+03  0.47000000000E+01 0.  1.
          1    1    1    2  502    0  0.17405242310E+02  0.43258321631E+01  0.10994335039E+03  0.11139656897E+03  0.00000000000E+00 0. -1.
          1    1    1    2  503    0 -0.16020525687E+02 -0.75594109888E+01 -0.12433903742E+03  0.12559457856E+03  0.00000000000E+00 0. -1.
<mgrwt>
<rscale>  0 0.17816719E+02</rscale>
<asrwt>0</asrwt>
<pdfrwt beam="1">  1        2 0.48925399E-01 0.17919573E+02</pdfrwt>
<pdfrwt beam="2">  1        2 0.14067352E+00 0.17714456E+02</pdfrwt>
<totfact> 0.52575661E+02</totfact>
</mgrwt>
</event>
<event>
13    1  0.1595792E-008  0.1388035E+03  0.7546771E-02  0.1240584E+00
          4   -1    0    0  503    0 -0.00000000000E+00  0.00000000000E+00  0.16312460293E+03  0.16312460293E+03  0.00000000000E+00 0. -1.
          2   -1    0    0  502    0  0.00000000000E+00 -0.00000000000E+00 -0.22606460144E+04  0.22606460144E+04  0.00000000000E+00 0. -1.
         24    2    1    2    0    0  0.31251271474E+02  0.60250354903E+02 -0.21982337613E+02  0.10734942058E+03  0.80211767818E+02 0.  0.
         25    2    1    2    0    0 -0.26388813698E+03 -0.17272020555E+03 -0.53239375453E+03  0.63129718525E+03  0.12499523192E+03 0.  0.
         24    2    1    2    0    0  0.41576149384E+02  0.13850379892E+02 -0.29928189849E+03  0.31291858172E+03  0.80174651860E+02 0.  0.
        -11    1    3    3    0    0 -0.13151989457E+02  0.31038777827E+02  0.20371521835E+02  0.39387554602E+02  0.00000000000E+00 0.  1.
         12    1    3    3    0    0  0.44403260932E+02  0.29211577076E+02 -0.42353859448E+02  0.67961865975E+02  0.00000000000E+00 0. -1.
        -11    1    5    5    0    0  0.35536920093E+01 -0.22306750479E+02 -0.25124875008E+02  0.33785783815E+02  0.00000000000E+00 0.  1.
         12    1    5    5    0    0  0.38022457375E+02  0.36157130371E+02 -0.27415702348E+03  0.27913279791E+03  0.00000000000E+00 0. -1.
          5    1    4    4  501    0 -0.52628890164E+01 -0.23708369051E+01  0.64059248348E+01  0.98206283617E+01  0.47000000000E+01 0.  1.
         -5    1    4    4    0  501 -0.25862524797E+03 -0.17034936865E+03 -0.53879967936E+03  0.62147655689E+03  0.47000000000E+01 0.  1.
          1    1    1    2  502    0  0.83106066587E+02  0.41038717926E+02 -0.12463869529E+04  0.12498284807E+04  0.00000000000E+00 0. -1.
          3    1    1    2  503    0  0.10795464954E+03  0.57580752830E+02  0.25235321013E+01  0.12237694909E+03  0.00000000000E+00 0. -1.
<mgrwt>
<rscale>  0 0.12153636E+03</rscale>
<asrwt>0</asrwt>
<pdfrwt beam="2">  1        2 0.33244795E+00 0.10641728E+03</pdfrwt>
<pdfrwt beam="1">  1        4 0.23988912E-01 0.13880347E+03</pdfrwt>
<totfact> 0.56081008E+01</totfact>
</mgrwt>
</event>
<event>
13    1  0.1595792E-008  0.6167131E+02  0.7546771E-02  0.1432577E+00
          2   -1    0    0  502    0  0.00000000000E+00  0.00000000000E+00  0.26537311119E+04  0.26537311119E+04  0.00000000000E+00 0. -1.
          2   -1    0    0  503    0 -0.00000000000E+00 -0.00000000000E+00 -0.21035015804E+03  0.21035015804E+03  0.00000000000E+00 0. -1.
         24    2    1    2    0    0 -0.15805167130E+02  0.13088178702E+03 -0.34457598413E+01  0.15413547475E+03  0.79787378911E+02 0.  0.
         25    2    1    2    0    0 -0.66035503139E+02 -0.26737107404E+03  0.46902968926E+03  0.55808862160E+03  0.12500432493E+03 0.  0.
         24    2    1    2    0    0  0.63311099534E+02  0.32640961059E+02  0.19761089585E+03  0.22533430193E+03  0.81558284724E+02 0.  0.
        -11    1    5    5    0    0 -0.16705502354E+02 -0.43117504188E+01  0.55414890958E+02  0.58038565976E+02  0.00000000000E+00 0.  1.
         12    1    5    5    0    0  0.80016601888E+02  0.36952711478E+02  0.14219600489E+03  0.16729573596E+03  0.00000000000E+00 0. -1.
        -11    1    3    3    0    0 -0.20815227861E+02  0.27700403188E+02 -0.31780693236E+02  0.47017002353E+02  0.00000000000E+00 0.  1.
         12    1    3    3    0    0  0.50100607310E+01  0.10318138383E+03  0.28334933394E+02  0.10711847239E+03  0.00000000000E+00 0. -1.
          5    1    4    4  501    0 -0.16041370247E+02 -0.46021472983E+02  0.20094557970E+03  0.20682484749E+03  0.47000000000E+01 0. -1.
         -5    1    4    4    0  501 -0.49994132891E+02 -0.22134960106E+03  0.26808410955E+03  0.35126377412E+03  0.47000000000E+01 0. -1.
          1    1    1    2  502    0  0.99049721537E+01  0.43487098282E+02  0.18403341266E+04  0.18408745024E+04  0.00000000000E+00 0. -1.
          1    1    1    2  503    0  0.86245985813E+01  0.60361227684E+02 -0.60147997928E+02  0.85648369295E+02  0.00000000000E+00 0. -1.
<mgrwt>
<rscale>  0 0.52446095E+02</rscale>
<asrwt>0</asrwt>
<pdfrwt beam="1">  1        2 0.39025456E+00 0.44600854E+02</pdfrwt>
<pdfrwt beam="2">  1        2 0.30933848E-01 0.61671305E+02</pdfrwt>
<totfact> 0.12523544E+02</totfact>
</mgrwt>
</event>
<event>
13    1  0.1595792E-008  0.1298897E+03  0.7546771E-02  0.1273704E+00
          2   -1    0    0  503    0  0.00000000000E+00  0.00000000000E+00  0.15321116781E+04  0.15321116781E+04  0.00000000000E+00 0. -1.
          2   -1    0    0  502    0 -0.00000000000E+00 -0.00000000000E+00 -0.11119063618E+04  0.11119063618E+04  0.00000000000E+00 0. -1.
         24    2    1    2    0    0 -0.31963785940E+02  0.14840699474E+02 -0.24443054958E+03  0.26005121800E+03  0.81476453296E+02 0.  0.
         25    2    1    2    0    0 -0.11408585686E+03  0.41384261857E+02  0.26537671934E+03  0.31744842783E+03  0.12498184387E+03 0.  0.
         24    2    1    2    0    0 -0.42411321688E+02  0.10188834713E+03  0.51397817170E+03  0.53171226703E+03  0.79777305266E+02 0.  0.
        -11    1    5    5    0    0 -0.59016150466E+02  0.39662093593E+02  0.29585549307E+03  0.30428023344E+03  0.00000000000E+00 0.  1.
         12    1    5    5    0    0  0.16604828777E+02  0.62226253541E+02  0.21812267863E+03  0.22743203358E+03  0.00000000000E+00 0. -1.
        -11    1    3    3    0    0 -0.24174557412E+02 -0.26692553539E+02 -0.53439954811E+02  0.64441682246E+02  0.00000000000E+00 0.  1.
         12    1    3    3    0    0 -0.77892285282E+01  0.41533253013E+02 -0.19099059477E+03  0.19560953575E+03  0.00000000000E+00 0. -1.
          5    1    4    4  501    0 -0.11791890578E+03  0.70821872515E+02  0.17772171352E+03  0.22478368140E+03  0.47000000000E+01 0.  1.
         -5    1    4    4    0  501  0.38330489202E+01 -0.29437610659E+02  0.87655005824E+02  0.92664746432E+02  0.47000000000E+01 0.  1.
          1    1    1    2  502    0  0.11416449853E+03 -0.19280540992E+03 -0.80707974869E+03  0.83760681681E+03  0.00000000000E+00 0. -1.
          1    1    1    2  503    0  0.74296465958E+02  0.34692101458E+02  0.69236072352E+03  0.69719931026E+03  0.00000000000E+00 0. -1.
<mgrwt>
<rscale>  0 0.10320159E+03</rscale>
<asrwt>0</asrwt>
<pdfrwt beam="1">  1        2 0.22531054E+00 0.81996992E+02</pdfrwt>
<pdfrwt beam="2">  1        2 0.16351564E+00 0.12988973E+03</pdfrwt>
<totfact> 0.61217357E+01</totfact>
</mgrwt>
</event>
<event>
13    1  0.1595792E-008  0.2203366E+03  0.7546771E-02  0.1341000E+00
          2   -1    0    0  502    0  0.00000000000E+00  0.00000000000E+00  0.20045542485E+04  0.20045542485E+04  0.00000000000E+00 0. -1.
          2   -1    0    0  503    0 -0.00000000000E+00 -0.00000000000E+00 -0.35751104914E+04  0.35751104914E+04  0.00000000000E+00 0. -1.
         24    2    1    2    0    0  0.26789502500E+03  0.69720177728E+02 -0.59515245587E+03  0.66095794821E+03  0.77655109132E+02 0.  0.
         25    2    1    2    0    0 -0.11340575773E+03  0.24115000337E+03  0.14091437043E+03  0.32635201249E+03  0.12503833912E+03 0.  0.
         24    2    1    2    0    0 -0.11663926340E+03 -0.71028499441E+02 -0.22016793212E+02  0.15781125783E+03  0.75959781566E+02 0.  0.
        -11    1    3    3    0    0  0.67557018893E+02 -0.38577859463E+01 -0.90239888473E+02  0.11279215747E+03  0.00000000000E+00 0.  1.
         12    1    3    3    0    0  0.20033800611E+03  0.73577963675E+02 -0.50491256739E+03  0.54816579074E+03  0.00000000000E+00 0. -1.
        -13    1    5    5    0    0 -0.12634484359E+03 -0.56292255615E+02 -0.16363252562E+02  0.13928242379E+03  0.00000000000E+00 0.  1.
         14    1    5    5    0    0  0.97055801887E+01 -0.14736243825E+02 -0.56535406499E+01  0.18528834037E+02  0.00000000000E+00 0. -1.
          5    1    4    4  501    0 -0.10248210507E+03  0.25178096229E+03  0.11346779828E+03  0.29460696882E+03  0.47000000000E+01 0.  1.
         -5    1    4    4    0  501 -0.10923652660E+02 -0.10630958917E+02  0.27446572149E+02  0.31745043671E+02  0.47000000000E+01 0.  1.
          1    1    1    2  502    0 -0.13136353235E+02 -0.22633675535E+02  0.16656962506E+04  0.16659018117E+04  0.00000000000E+00 0. -1.
          1    1    1    2  503    0 -0.24713650640E+02 -0.21720800612E+03 -0.27599976149E+04  0.27686417097E+04  0.00000000000E+00 0. -1.
<mgrwt>
<rscale>  0 0.75934952E+02</rscale>
<asrwt>0</asrwt>
<pdfrwt beam="1">  1        2 0.29478739E+00 0.26169582E+02</pdfrwt>
<pdfrwt beam="2">  1        2 0.52575154E+00 0.22033660E+03</pdfrwt>
<totfact> 0.19745464E+00</totfact>
</mgrwt>
</event>
<event>
13    1  0.1595792E-008  0.7407416E+02  0.7546771E-02  0.1372478E+00
         -1   -1    0    0    0  501 -0.00000000000E+00  0.00000000000E+00  0.79600863460E+03  0.79600863460E+03  0.00000000000E+00 0.  1.
          2   -1    0    0  503    0  0.00000000000E+00 -0.00000000000E+00 -0.77482146134E+03  0.77482146134E+03  0.00000000000E+00 0. -1.
         24    2    1    2    0    0  0.56995782339E+02  0.19041454095E+02  0.35266655657E+03  0.36660502649E+03  0.80090256250E+02 0.  0.
         25    2    1    2    0    0  0.39149420107E+02 -0.82123477896E+02  0.82115809550E+01  0.15482612867E+03  0.12500702917E+03 0.  0.
         24    2    1    2    0    0 -0.13770798190E+02  0.45549958263E+02 -0.73075951607E+02  0.11918062744E+03  0.81237267754E+02 0.  0.
        -11    1    3    3    0    0  0.36606464847E+02 -0.28805775518E+02  0.19885609983E+03  0.20423896399E+03  0.00000000000E+00 0.  1.
         12    1    3    3    0    0  0.20389317492E+02  0.47847229613E+02  0.15381045674E+03  0.16236606250E+03  0.00000000000E+00 0. -1.
        -13    1    5    5    0    0 -0.23706536667E+02 -0.17663699009E+02 -0.17035756734E+02  0.34120714396E+02  0.00000000000E+00 0.  1.
         14    1    5    5    0    0  0.99357384772E+01  0.63213657272E+02 -0.56040194873E+02  0.85059913039E+02  0.00000000000E+00 0. -1.
          5    1    4    4  502    0  0.34850473752E+02 -0.51946973128E+02  0.64918514232E+02  0.90274841612E+02  0.47000000000E+01 0. -1.
         -5    1    4    4    0  502  0.42989463549E+01 -0.30176504767E+02 -0.56706933277E+02  0.64551287062E+02  0.47000000000E+01 0. -1.
          1    1    1    2  503    0 -0.41767641537E+02  0.61254147768E+02 -0.59340843134E+03  0.59802188328E+03  0.00000000000E+00 0. -1.
         -2    1    1    2    0  501 -0.40606762720E+02 -0.43722082230E+02  0.32679341868E+03  0.33219643006E+03  0.00000000000E+00 0.  1.
<mgrwt>
<rscale>  0 0.66483216E+02</rscale>
<asrwt>0</asrwt>
<pdfrwt beam="2">  1        2 0.11394433E+00 0.74074161E+02</pdfrwt>
<pdfrwt beam="1">  1       -1 0.11706009E+00 0.59670174E+02</pdfrwt>
<totfact> 0.35728493E+01</totfact>
</mgrwt>
</event>
<event>
13    1  0.1595792E-008  0.8084476E+02  0.7546771E-02  0.1386902E+00
          2   -1    0    0  502    0  0.00000000000E+00  0.00000000000E+00  0.31371743756E+03  0.31371743756E+03  0.00000000000E+00 0. -1.
          2   -1    0    0  503    0 -0.00000000000E+00 -0.00000000000E+00 -0.11340522334E+04  0.11340522334E+04  0.00000000000E+00 0. -1.
         24    2    1    2    0    0  0.45660984102E+02 -0.61406460735E+02 -0.10250664879E+03  0.15099778205E+03  0.80231155097E+02 0.  0.
         25    2    1    2    0    0 -0.61582213829E+02  0.20843848807E+03 -0.12273391415E+03  0.27915485663E+03  0.12499939171E+03 0.  0.
         24    2    1    2    0    0 -0.28924528641E+02 -0.67359317860E+02  0.22096784038E+02  0.11106214543E+03  0.80452633410E+02 0.  0.
        -11    1    5    5    0    0 -0.30101158588E+02 -0.27798160776E+02 -0.26189228739E+02  0.48628111138E+02  0.00000000000E+00 0.  1.
         12    1    5    5    0    0  0.11766299473E+01 -0.39561157085E+02  0.48286012777E+02  0.62434034291E+02  0.00000000000E+00 0. -1.
        -13    1    3    3    0    0  0.10700693905E+02 -0.69953845883E+02 -0.47383851119E+02  0.85166159657E+02  0.00000000000E+00 0.  1.
         14    1    3    3    0    0  0.34960290197E+02  0.85473851477E+01 -0.55122797675E+02  0.65831622394E+02  0.00000000000E+00 0. -1.
          5    1    4    4  501    0 -0.11180686107E+02  0.27329802593E+02 -0.81259165807E+02  0.86585610116E+02  0.47000000000E+01 0. -1.
         -5    1    4    4    0  501 -0.50401527722E+02  0.18110868548E+03 -0.41474748339E+02  0.19256924651E+03  0.47000000000E+01 0. -1.
          1    1    1    2  502    0  0.71057249324E+02 -0.38743869956E+02  0.13251484363E+03  0.15527525213E+03  0.00000000000E+00 0. -1.
          1    1    1    2  503    0 -0.26211490956E+02 -0.40928839522E+02 -0.74970586062E+03  0.75127963477E+03  0.00000000000E+00 0. -1.
<mgrwt>
<rscale>  0 0.62683852E+02</rscale>
<asrwt>0</asrwt>
<pdfrwt beam="1">  1        2 0.46134917E-01 0.80844764E+02</pdfrwt>
<pdfrwt beam="2">  1        2 0.16677239E+00 0.48602594E+02</pdfrwt>
<totfact> 0.43430176E+02</totfact>
</mgrwt>
</event>
<event>
13    1  0.1595792E-008  0.7432537E+02  0.7546771E-02  0.1346895E+00
          2   -1    0    0  502    0  0.00000000000E+00  0.00000000000E+00  0.24802584412E+04  0.24802584412E+04  0.00000000000E+00 0. -1.
          2   -1    0    0  503    0 -0.00000000000E+00 -0.00000000000E+00 -0.14508946936E+04  0.14508946936E+04  0.00000000000E+00 0. -1.
         24    2    1    2    0    0 -0.42797061311E+01 -0.57162017544E+02 -0.79972954422E+01  0.96473523483E+02  0.77184013012E+02 0.  0.
         25    2    1    2    0    0 -0.71561049292E+02  0.38269000101E+03  0.19505464658E+03  0.45303742632E+03  0.12499589533E+03 0.  0.
         24    2    1    2    0    0  0.14546546942E+03 -0.24008352704E+03  0.73528243147E+03  0.79100638388E+03  0.79060372882E+02 0.  0.
        -11    1    3    3    0    0 -0.28976409494E+02 -0.22897074448E+02 -0.31143452187E+02  0.48309656794E+02  0.00000000000E+00 0.  1.
         12    1    3    3    0    0  0.24696703363E+02 -0.34264943097E+02  0.23146156745E+02  0.48163866689E+02  0.00000000000E+00 0. -1.
        -13    1    5    5    0    0  0.46701255953E+02 -0.13308593648E+03  0.28920503194E+03  0.32176454792E+03  0.00000000000E+00 0.  1.
         14    1    5    5    0    0  0.98764213469E+02 -0.10699759056E+03  0.44607739953E+03  0.46924183597E+03  0.00000000000E+00 0. -1.
          5    1    4    4  501    0 -0.83619226834E+02  0.14303001078E+03  0.10750871238E+03  0.19756004737E+03  0.47000000000E+01 0.  1.
         -5    1    4    4    0  501  0.12058177542E+02  0.23965999023E+03  0.87545934206E+02  0.25547737895E+03  0.47000000000E+01 0.  1.
          1    1    1    2  502    0 -0.72884292522E+02 -0.11198492485E+02  0.13467084177E+04  0.13487257278E+04  0.00000000000E+00 0. -1.
          1    1    1    2  503    0  0.32595785228E+01 -0.74245963943E+02 -0.12396844527E+04  0.12419100733E+04  0.00000000000E+00 0. -1.
<mgrwt>
<rscale>  0 0.74031897E+02</rscale>
<asrwt>0</asrwt>
<pdfrwt beam="1">  1        2 0.36474389E+00 0.73739585E+02</pdfrwt>
<pdfrwt beam="2">  1        2 0.21336687E+00 0.74325368E+02</pdfrwt>
<totfact> 0.15011075E+01</totfact>
</mgrwt>
</event>
<event>
13    1  0.1595792E-008  0.1409226E+03  0.7546771E-02  0.1313005E+00
          2   -1    0    0  502    0  0.00000000000E+00  0.00000000000E+00  0.29226012468E+03  0.29226012468E+03  0.00000000000E+00 0. -1.
          2   -1    0    0  503    0 -0.00000000000E+00 -0.00000000000E+00 -0.38579459499E+04  0.38579459499E+04  0.00000000000E+00 0. -1.
         24    2    1    2    0    0  0.39763986481E+02 -0.13124337298E+03 -0.65370394693E+03  0.67262084722E+03  0.79271409133E+02 0.  0.
         25    2    1    2    0    0  0.14383168717E+03 -0.30224482227E+03 -0.43972690448E+03  0.56659035543E+03  0.12500157408E+03 0.  0.
         24    2    1    2    0    0 -0.18924508380E+03  0.32790989793E+03 -0.21328840540E+02  0.38661662034E+03  0.75358402197E+02 0.  0.
        -11    1    5    5    0    0 -0.59145323962E+02  0.60963345311E+02  0.18687000834E+02  0.86970700918E+02  0.00000000000E+00 0.  1.
         12    1    5    5    0    0 -0.13009975984E+03  0.26694655262E+03 -0.40015841374E+02  0.29964591943E+03  0.00000000000E+00 0. -1.
        -13    1    3    3    0    0  0.53958375610E+02 -0.43421351160E+02 -0.30199421383E+03  0.30983451263E+03  0.00000000000E+00 0.  1.
         14    1    3    3    0    0 -0.14194389129E+02 -0.87822021818E+02 -0.35170973311E+03  0.36278633458E+03  0.00000000000E+00 0. -1.
          5    1    4    4  501    0  0.11062222069E+03 -0.28765118686E+03 -0.33292153396E+03  0.45369518268E+03  0.47000000000E+01 0.  1.
         -5    1    4    4    0  501  0.33209466488E+02 -0.14593635401E+02 -0.10680537051E+03  0.11289517274E+03  0.47000000000E+01 0.  1.
          1    1    1    2  502    0  0.42397016608E+02 -0.30799826773E+02  0.14923239916E+02  0.54487057510E+02  0.00000000000E+00 0. -1.
          1    1    1    2  503    0 -0.36747606462E+02  0.13637812408E+03 -0.24658493732E+04  0.24698911941E+04  0.00000000000E+00 0. -1.
<mgrwt>
<rscale>  0 0.85935154E+02</rscale>
<asrwt>0</asrwt>
<pdfrwt beam="1">  1        2 0.42979431E-01 0.52403591E+02</pdfrwt>
<pdfrwt beam="2">  1        2 0.56734498E+00 0.14092261E+03</pdfrwt>
<totfact> 0.15460586E+01</totfact>
</mgrwt>
</event>
<event>
13    1  0.1595792E-008  0.4040580E+02  0.7546771E-02  0.1507772E+00
          2   -1    0    0  502    0  0.00000000000E+00  0.00000000000E+00  0.24198843079E+04  0.24198843079E+04  0.00000000000E+00 0. -1.
          4   -1    0    0  503    0 -0.00000000000E+00 -0.00000000000E+00 -0.84530186718E+03  0.84530186718E+03  0.00000000000E+00 0. -1.
         24    2    1    2    0    0  0.13106531664E+03 -0.82603639230E+02 -0.37709301048E+03  0.41528672879E+03  0.79135643782E+02 0.  0.
         25    2    1    2    0    0 -0.17007704734E+03  0.82116141642E+01 -0.19001928993E+03  0.28412722041E+03  0.12500925644E+03 0.  0.
         24    2    1    2    0    0 -0.18001853365E+02  0.29653848049E+02  0.18930678898E+03  0.20850077377E+03  0.80200342161E+02 0.  0.
        -13    1    3    3    0    0  0.66768338100E+02 -0.75989785165E+02 -0.16476992170E+03  0.19334318069E+03  0.00000000000E+00 0.  1.
         14    1    3    3    0    0  0.64296978542E+02 -0.66138540653E+01 -0.21232308878E+03  0.22194354810E+03  0.00000000000E+00 0. -1.
        -13    1    5    5    0    0 -0.28301599479E+01 -0.23732434173E+02  0.10413067688E+03  0.10683836438E+03  0.00000000000E+00 0.  1.
         14    1    5    5    0    0 -0.15171693418E+02  0.53386282222E+02  0.85176112099E+02  0.10166240939E+03  0.00000000000E+00 0. -1.
          5    1    4    4  501    0 -0.53785973860E+02  0.34393800789E+02 -0.14156801215E+03  0.15536877609E+03  0.47000000000E+01 0.  1.
         -5    1    4    4    0  501 -0.11629107348E+03 -0.26182186625E+02 -0.48451277773E+02  0.12875844433E+03  0.47000000000E+01 0.  1.
          1    1    1    2  502    0  0.38697922900E+02  0.89376608740E+01  0.21526476706E+04  0.21530140280E+04  0.00000000000E+00 0. -1.
          3    1    1    2  503    0  0.18315661163E+02  0.35800516143E+02 -0.20025971853E+03  0.20425742402E+03  0.00000000000E+00 0. -1.
<mgrwt>
<rscale>  0 0.40059736E+02</rscale>
<asrwt>0</asrwt>
<pdfrwt beam="1">  1        2 0.35586534E+00 0.39716634E+02</pdfrwt>
<pdfrwt beam="2">  1        4 0.12430910E+00 0.40405802E+02</pdfrwt>
<totfact> 0.16398362E+00</totfact>
</mgrwt>
</event>
<event>
13    1  0.1595792E-008  0.2090479E+03  0.7546771E-02  0.1237410E+00
          2   -1    0    0  503    0  0.00000000000E+00  0.00000000000E+00  0.20023047358E+04  0.20023047358E+04  0.00000000000E+00 0. -1.
          2   -1    0    0  502    0 -0.00000000000E+00 -0.00000000000E+00 -0.12686292798E+04  0.12686292798E+04  0.00000000000E+00 0. -1.
         24    2    1    2    0    0  0.17735480325E+03  0.10685444980E+02 -0.23510925229E+03  0.30447393229E+03  0.76544823235E+02 0.  0.
         25    2    1    2    0    0 -0.88409044964E+02 -0.35211917464E+03 -0.33591343037E+03  0.51016304469E+03  0.12499770834E+03 0.  0.
         24    2    1    2    0    0 -0.46557512890E+02  0.10828258790E+03  0.29023558473E+03  0.32629699532E+03  0.91325317749E+02 0.  0.
        -11    1    5    5    0    0 -0.15864457695E+01  0.10338716687E+03  0.21348100844E+03  0.23720363414E+03  0.00000000000E+00 0.  1.
         12    1    5    5    0    0 -0.44971067121E+02  0.48954210289E+01  0.76754576290E+02  0.89093361181E+02  0.00000000000E+00 0. -1.
        -13    1    3    3    0    0  0.15329585399E+03  0.35174351767E+01 -0.23346402734E+03  0.27931602758E+03  0.00000000000E+00 0.  1.
         14    1    3    3    0    0  0.24058949269E+02  0.71680098032E+01 -0.16452249419E+01  0.25157904714E+02  0.00000000000E+00 0. -1.
          5    1    4    4  501    0 -0.11333738306E+03 -0.20210765541E+03 -0.20711966943E+03  0.31082714528E+03  0.47000000000E+01 0. -1.
         -5    1    4    4    0  501  0.24928338095E+02 -0.15001151923E+03 -0.12879376093E+03  0.19933589941E+03  0.47000000000E+01 0. -1.
          1    1    1    2  502    0  0.30676041529E+02  0.66217007549E+02 -0.55007075114E+03  0.55489056838E+03  0.00000000000E+00 0. -1.
          1    1    1    2  503    0 -0.73064286929E+02  0.16693413420E+03  0.15645333051E+04  0.15751094749E+04  0.00000000000E+00 0. -1.
<mgrwt>
<rscale>  0 0.12351433E+03</rscale>
<asrwt>0</asrwt>
<pdfrwt beam="1">  1        2 0.29445658E+00 0.20904793E+03</pdfrwt>
<pdfrwt beam="2">  1        2 0.18656313E+00 0.72977473E+02</pdfrwt>
<totfact> 0.28304044E+01</totfact>
</mgrwt>
</event>
<event>
13    1  0.1595792E-008  0.1219305E+03  0.7546771E-02  0.1318041E+00
          2   -1    0    0  503    0  0.00000000000E+00  0.00000000000E+00  0.24249436257E+04  0.24249436257E+04  0.00000000000E+00 0. -1.
          2   -1    0    0  502    0 -0.00000000000E+00 -0.00000000000E+00 -0.23957430230E+04  0.23957430230E+04  0.00000000000E+00 0. -1.
         24    2    1    2    0    0 -0.35877440602E+01  0.53736662231E+02 -0.18792643605E+03  0.21143261879E+03  0.80541331926E+02 0.  0.
         25    2    1    2    0    0 -0.12727180883E+03 -0.17352374183E+03  0.26222681237E+03  0.36151800178E+03  0.12499504863E+03 0.  0.
         24    2    1    2    0    0  0.73724933874E+02  0.84074364684E+02  0.72017746649E+02  0.15491850433E+03  0.79431243728E+02 0.  0.
        -13    1    5    5    0    0  0.81150320163E+02  0.40308302622E+02  0.60842895609E+02  0.10914207103E+03  0.00000000000E+00 0.  1.
         14    1    5    5    0    0 -0.74253862891E+01  0.43766062062E+02  0.11174851040E+02  0.45776433301E+02  0.00000000000E+00 0. -1.
        -13    1    3    3    0    0  0.25859649104E+02  0.43809436805E+02 -0.16541208607E+03  0.17305821686E+03  0.00000000000E+00 0.  1.
         14    1    3    3    0    0 -0.29447393164E+02  0.99272254260E+01 -0.22514349984E+02  0.38374401937E+02  0.00000000000E+00 0. -1.
          5    1    4    4  501    0 -0.16153415606E+02 -0.12732277508E+03  0.13569873445E+03  0.18683751877E+03  0.47000000000E+01 0.  1.
         -5    1    4    4    0  501 -0.11111839322E+03 -0.46200966750E+02  0.12652807792E+03  0.17468048301E+03  0.47000000000E+01 0.  1.
          1    1    1    2  502    0  0.11229170656E+03  0.53268124199E+02 -0.21027108137E+04  0.21063807079E+04  0.00000000000E+00 0. -1.
          1    1    1    2  503    0 -0.55157087548E+02 -0.17555409283E+02  0.19855932934E+04  0.19864368159E+04  0.00000000000E+00 0. -1.
<mgrwt>
<rscale>  0 0.84010475E+02</rscale>
<asrwt>0</asrwt>
<pdfrwt beam="1">  1        2 0.35660936E+00 0.57883475E+02</pdfrwt>
<pdfrwt beam="2">  1        2 0.35231515E+00 0.12193048E+03</pdfrwt>
<totfact> 0.54699607E+00</totfact>
</mgrwt>
</event>
<event>
13    1  0.1595792E-008  0.3745883E+03  0.7546771E-02  0.1290786E+00
          2   -1    0    0  503    0  0.00000000000E+00  0.00000000000E+00  0.27489301352E+04  0.27489301352E+04  0.00000000000E+00 0. -1.
          2   -1    0    0  502    0 -0.00000000000E+00 -0.00000000000E+00 -0.16625958146E+04  0.16625958146E+04  0.00000000000E+00 0. -1.
         24    2    1    2    0    0 -0.30814479496E+02 -0.82117455700E+02 -0.21944212505E+03  0.24887037603E+03  0.78030821727E+02 0.  0.
         25    2    1    2    0    0 -0.25542260113E+03 -0.16112027898E+02 -0.20413603071E+03  0.35042444776E+03  0.12500188775E+03 0.  0.
         24    2    1    2    0    0 -0.73074944274E+02  0.18077513690E+03  0.60332099973E+02  0.22003164453E+03  0.82184942096E+02 0.  0.
        -11    1    3    3    0    0 -0.49269955700E+02 -0.48394294113E+02 -0.18418849439E+03  0.19671028875E+03  0.00000000000E+00 0.  1.
         12    1    3    3    0    0  0.18455476204E+02 -0.33723161587E+02 -0.35253630669E+02  0.52160087277E+02  0.00000000000E+00 0. -1.
        -11    1    5    5    0    0 -0.64133633778E+02  0.63601591247E+02  0.46838095461E+02  0.10174523368E+03  0.00000000000E+00 0.  1.
         12    1    5    5    0    0 -0.89413104960E+01  0.11717354565E+03  0.13494004512E+02  0.11828641085E+03  0.00000000000E+00 0. -1.
          5    1    4    4  501    0 -0.45751452278E+02 -0.10271443368E+02 -0.11155533829E+03  0.12110070782E+03  0.47000000000E+01 0. -1.
         -5    1    4    4    0  501 -0.20967114886E+03 -0.58405845300E+01 -0.92580692428E+02  0.22932373994E+03  0.47000000000E+01 0. -1.
          1    1    1    2  502    0 -0.73013969800E+01  0.23052566106E+02 -0.10567354243E+04  0.10570120568E+04  0.00000000000E+00 0. -1.
          1    1    1    2  503    0  0.36661342188E+03 -0.10559821941E+03  0.25063158007E+04  0.25351874246E+04  0.00000000000E+00 0. -1.
<mgrwt>
<rscale>  0 0.95173535E+02</rscale>
<asrwt>0</asrwt>
<pdfrwt beam="1">  1        2 0.40425443E+00 0.37458835E+03</pdfrwt>
<pdfrwt beam="2">  1        2 0.24449938E+00 0.24181216E+02</pdfrwt>
<totfact> 0.77972396E+00</totfact>
</mgrwt>
</event>
<event>
13    1  0.1595792E-008  0.9370053E+02  0.7546771E-02  0.1451899E+00
         -1   -1    0    0    0  501 -0.00000000000E+00  0.00000000000E+00  0.21398501281E+03  0.21398501281E+03  0.00000000000E+00 0.  1.
          2   -1    0    0  503    0  0.00000000000E+00 -0.00000000000E+00 -0.16237596911E+04  0.16237596911E+04  0.00000000000E+00 0. -1.
         24    2    1    2    0    0 -0.55661527611E+01  0.75442502913E+02 -0.25402703018E+03  0.27692779234E+03  0.80229151830E+02 0.  0.
         25    2    1    2    0    0  0.23234168402E+03 -0.14981191513E+03 -0.11809522621E+03  0.32557720115E+03  0.12501105314E+03 0.  0.
         24    2    1    2    0    0 -0.17789762399E+03  0.12356401618E+03 -0.67277388791E+03  0.71108569536E+03  0.78118699269E+02 0.  0.
        -13    1    5    5    0    0 -0.41106613318E+02  0.73732012009E+02 -0.26325293386E+03  0.27645663392E+03  0.00000000000E+00 0.  1.
         14    1    5    5    0    0 -0.13679101067E+03  0.49832004169E+02 -0.40952095405E+03  0.43462906144E+03  0.00000000000E+00 0. -1.
        -13    1    3    3    0    0  0.16904449192E+02 -0.48673163051E+01 -0.10222175197E+03  0.10372433536E+03  0.00000000000E+00 0.  1.
         14    1    3    3    0    0 -0.22470601953E+02  0.80309819218E+02 -0.15180527821E+03  0.17320345697E+03  0.00000000000E+00 0. -1.
          5    1    4    4  502    0 -0.10890117942E+02  0.59481361113E+01 -0.11849298190E+02  0.17789627865E+02  0.47000000000E+01 0. -1.
         -5    1    4    4    0  502  0.24323180196E+03 -0.15576005124E+03 -0.10624592802E+03  0.30778757329E+03  0.47000000000E+01 0. -1.
          1    1    1    2  503    0  0.13362811120E+02  0.21624258418E+02 -0.41608664325E+03  0.41686240891E+03  0.00000000000E+00 0. -1.
         -2    1    1    2    0  501 -0.62240718392E+02 -0.70818862380E+02  0.51208109263E+02  0.10729160614E+03  0.00000000000E+00 0.  1.
<mgrwt>
<rscale>  0 0.48804322E+02</rscale>
<asrwt>0</asrwt>
<pdfrwt beam="2">  1        2 0.23878819E+00 0.25419938E+02</pdfrwt>
<pdfrwt beam="1">  1       -1 0.31468384E-01 0.93700535E+02</pdfrwt>
<totfact> 0.16784956E+02</totfact>
</mgrwt>
</event>
<event>
13    1  0.1595792E-008  0.1345893E+03  0.7546771E-02  0.1228454E+00
         -3   -1    0    0    0  501 -0.00000000000E+00  0.00000000000E+00  0.32221348311E+04  0.32221348311E+04  0.00000000000E+00 0.  1.
          2   -1    0    0  503    0  0.00000000000E+00 -0.00000000000E+00 -0.42289353257E+04  0.42289353257E+04  0.00000000000E+00 0. -1.
         24    2    1    2    0    0 -0.57438030426E+03 -0.42618040840E+01  0.78413990842E+03  0.97500983247E+03  0.76406024275E+02 0.  0.
         25    2    1    2    0    0  0.56728969837E+02 -0.30046697464E+03  0.35163087157E+03  0.48246037016E+03  0.12500064026E+03 0.  0.
         24    2    1    2    0    0  0.74127029463E+03  0.40289847758E+03  0.12942864313E+03  0.86042409652E+03  0.10848511083E+03 0.  0.
        -11    1    3    3    0    0 -0.34120796504E+03  0.28173322768E+02  0.50056608332E+03  0.60645116480E+03  0.00000000000E+00 0.  1.
         12    1    3    3    0    0 -0.23317233922E+03 -0.32435126852E+02  0.28357382510E+03  0.36855866767E+03  0.00000000000E+00 0. -1.
        -11    1    5    5    0    0  0.54048196617E+03  0.23945600141E+03  0.75325382594E+02  0.59593107457E+03  0.00000000000E+00 0.  1.
         12    1    5    5    0    0  0.20078832845E+03  0.16344247617E+03  0.54103260540E+02  0.26449302195E+03  0.00000000000E+00 0. -1.
          5    1    4    4  502    0 -0.27059506651E+02 -0.18670067937E+03  0.19153503335E+03  0.26888123694E+03  0.47000000000E+01 0. -1.
         -5    1    4    4    0  502  0.83788476489E+02 -0.11376629527E+03  0.16009583823E+03  0.21357913322E+03  0.47000000000E+01 0. -1.
          1    1    1    2  503    0 -0.90213801549E+02 -0.85474911825E+02 -0.36984036573E+04  0.37004910624E+04  0.00000000000E+00 0. -1.
         -4    1    1    2    0  501 -0.13340515865E+03 -0.12694787036E+02  0.14264037396E+04  0.14326847952E+04  0.00000000000E+00 0.  1.
<mgrwt>
<rscale>  0 0.12932981E+03</rscale>
<asrwt>0</asrwt>
<pdfrwt beam="2">  1        2 0.62190225E+00 0.12427586E+03</pdfrwt>
<pdfrwt beam="1">  1       -3 0.47384336E+00 0.13458928E+03</pdfrwt>
<totfact> 0.17210549E-03</totfact>
</mgrwt>
</event>
<event>
13    1  0.1595792E-008  0.9050545E+02  0.7546771E-02  0.1357625E+00
          2   -1    0    0  503    0  0.00000000000E+00  0.00000000000E+00  0.13866845387E+04  0.13866845387E+04  0.00000000000E+00 0. -1.
          2   -1    0    0  502    0 -0.00000000000E+00 -0.00000000000E+00 -0.56183871640E+03  0.56183871640E+03  0.00000000000E+00 0. -1.
         24    2    1    2    0    0 -0.13274071879E+03 -0.21816131375E+02 -0.20461764403E+03  0.25769085385E+03  0.80250569426E+02 0.  0.
         25    2    1    2    0    0  0.44074138000E+02  0.82366367654E+01  0.14609309768E+03  0.19742838269E+03  0.12499760509E+03 0.  0.
         24    2    1    2    0    0  0.59314302314E+02 -0.19970659685E+02  0.35855201443E+03  0.37290558079E+03  0.81129596496E+02 0.  0.
        -11    1    5    5    0    0  0.37155069407E+02 -0.21751762168E+02  0.61780024497E+02  0.75302123256E+02  0.00000000000E+00 0.  1.
         12    1    5    5    0    0  0.22159232906E+02  0.17811024828E+01  0.29677198993E+03  0.29760345753E+03  0.00000000000E+00 0. -1.
        -13    1    3    3    0    0 -0.68427356182E+02 -0.50954714900E+02 -0.12414574638E+03  0.15063483126E+03  0.00000000000E+00 0.  1.
         14    1    3    3    0    0 -0.64313362610E+02  0.29138583525E+02 -0.80471897647E+02  0.10705602258E+03  0.00000000000E+00 0. -1.
          5    1    4    4  501    0  0.62713574395E+02  0.51380345795E+02  0.66888312825E+02  0.10520964186E+03  0.47000000000E+01 0.  1.
         -5    1    4    4    0  501 -0.18639436395E+02 -0.43143709030E+02  0.79204784850E+02  0.92218740835E+02  0.47000000000E+01 0.  1.
          1    1    1    2  502    0  0.74664924808E+01 -0.54770285040E+02 -0.29272936515E+03  0.29790269192E+03  0.00000000000E+00 0. -1.
          1    1    1    2  503    0  0.21885785997E+02  0.88320439335E+02  0.81754771939E+03  0.82259574586E+03  0.00000000000E+00 0. -1.
<mgrwt>
<rscale>  0 0.70730885E+02</rscale>
<asrwt>0</asrwt>
<pdfrwt beam="1">  1        2 0.20392420E+00 0.90505447E+02</pdfrwt>
<pdfrwt beam="2">  1        2 0.82623341E-01 0.55276872E+02</pdfrwt>
<totfact> 0.16860800E+02</totfact>
</mgrwt>
</event>
<event>
13    1  0.1595792E-008  0.1550334E+03  0.7546771E-02  0.1290810E+00
          2   -1    0    0  503    0  0.00000000000E+00  0.00000000000E+00  0.43148245183E+04  0.43148245183E+04  0.00000000000E+00 0. -1.
          2   -1    0    0  502    0 -0.00000000000E+00 -0.00000000000E+00 -0.98461506239E+03  0.98461506239E+03  0.00000000000E+00 0. -1.
         24    2    1    2    0    0  0.10076201390E+02  0.88125117840E+02 -0.71336445252E+02  0.14115290019E+03  0.83472669670E+02 0.  0.
         25    2    1    2    0    0  0.89998774312E+02 -0.85020761925E+02 -0.44053444717E+02  0.18137080469E+03  0.12500541374E+03 0.  0.
         24    2    1    2    0    0  0.34603884736E+02  0.48395998934E+02  0.26852115362E+03  0.28639558805E+03  0.79870027933E+02 0.  0.
        -11    1    3    3    0    0 -0.98486392453E+01 -0.96192557813E+01  0.59146254245E+01  0.14983610068E+02  0.00000000000E+00 0.  1.
         12    1    3    3    0    0  0.19924840635E+02  0.97744373621E+02 -0.77251070677E+02  0.12616929012E+03  0.00000000000E+00 0. -1.
        -11    1    5    5    0    0 -0.11242550059E+02 -0.12259404275E+02  0.10187146166E+03  0.10322055331E+03  0.00000000000E+00 0.  1.
         12    1    5    5    0    0  0.45846434795E+02  0.60655403210E+02  0.16664969196E+03  0.18317503474E+03  0.00000000000E+00 0. -1.
          5    1    4    4  501    0  0.49152845696E+02 -0.82151851614E+02 -0.81401602829E+02  0.12575070539E+03  0.47000000000E+01 0. -1.
         -5    1    4    4    0  501  0.40845928617E+02 -0.28689103106E+01  0.37348158113E+02  0.55620099293E+02  0.47000000000E+01 0. -1.
          1    1    1    2  502    0 -0.16304246275E+03 -0.43588925542E+00 -0.74771888625E+03  0.76528855180E+03  0.00000000000E+00 0. -1.
          1    1    1    2  503    0  0.28363602316E+02 -0.51064465594E+02  0.39247970785E+04  0.39252317359E+04  0.00000000000E+00 0. -1.
<mgrwt>
<rscale>  0 0.95162803E+02</rscale>
<asrwt>0</asrwt>
<pdfrwt beam="1">  1        2 0.63453301E+00 0.58412957E+02</pdfrwt>
<pdfrwt beam="2">  1        2 0.14479633E+00 0.15503339E+03</pdfrwt>
<totfact> 0.22992646E+00</totfact>
</mgrwt>
</event>
<event>
13    1  0.1595792E-008  0.5626699E+02  0.7546771E-02  0.1572231E+00
         -1   -1    0    0    0  501 -0.00000000000E+00  0.00000000000E+00  0.24751261995E+04  0.24751261995E+04  0.00000000000E+00 0.  1.
          2   -1    0    0  503    0  0.00000000000E+00 -0.00000000000E+00 -0.24270150733E+04  0.24270150733E+04  0.00000000000E+00 0. -1.
         24    2    1    2    0    0  0.59993500918E+03  0.36837815244E+03  0.91763389561E+03  0.11618060445E+04  0.11007651973E+03 0.  0.
         25    2    1    2    0    0 -0.65127505967E+03 -0.30763027756E+02  0.35107168573E+03  0.75098454596E+03  0.12498356903E+03 0.  0.
         24    2    1    2    0    0  0.70463407966E+02 -0.36990999436E+03 -0.10809553424E+04  0.11487533816E+04  0.96805907204E+02 0.  0.
        -11    1    3    3    0    0  0.42673267381E+03  0.30938235763E+03  0.63703154159E+03  0.82681763594E+03  0.00000000000E+00 0.  1.
         12    1    3    3    0    0  0.17320233537E+03  0.58995794812E+02  0.28060235402E+03  0.33498840855E+03  0.00000000000E+00 0. -1.
        -11    1    5    5    0    0  0.34402133995E+02 -0.31293008859E+03 -0.95960567241E+03  0.10099266279E+04  0.00000000000E+00 0.  1.
         12    1    5    5    0    0  0.36061273971E+02 -0.56979905762E+02 -0.12134967001E+03  0.13882675373E+03  0.00000000000E+00 0. -1.
          5    1    4    4  502    0 -0.60870107569E+03 -0.29814268942E+02  0.28635132625E+03  0.67336844463E+03  0.47000000000E+01 0.  1.
         -5    1    4    4    0  502 -0.42573983980E+02 -0.94875881457E+00  0.64720359471E+02  0.77616101328E+02  0.47000000000E+01 0.  1.
          1    1    1    2  503    0 -0.28725281822E+02  0.48392870235E+02 -0.98921509320E+03  0.99081457010E+03  0.00000000000E+00 0. -1.
         -2    1    1    2    0  501  0.96019243403E+01 -0.16098000569E+02  0.84957598055E+03  0.84978273065E+03  0.00000000000E+00 0.  1.
<mgrwt>
<rscale>  0 0.32475775E+02</rscale>
<asrwt>0</asrwt>
<pdfrwt beam="2">  1        2 0.35691398E+00 0.56266987E+02</pdfrwt>
<pdfrwt beam="1">  1       -1 0.36398915E+00 0.18744134E+02</pdfrwt>
<totfact> 0.16352114E-01</totfact>
</mgrwt>
</event>
<event>
13    1  0.1595792E-008  0.5429530E+02  0.7546771E-02  0.1569852E+00
          2   -1    0    0  503    0  0.00000000000E+00  0.00000000000E+00  0.16800999887E+04  0.16800999887E+04  0.00000000000E+00 0. -1.
          2   -1    0    0  502    0 -0.00000000000E+00 -0.00000000000E+00 -0.24738525793E+04  0.24738525793E+04  0.00000000000E+00 0. -1.
         24    2    1    2    0    0  0.34631643878E+02  0.19050277971E+03 -0.32814374931E+03  0.38957780447E+03  0.81251988845E+02 0.  0.
         25    2    1    2    0    0  0.24616095184E+03 -0.30731256600E+03 -0.10774594840E+03  0.42693134628E+03  0.12499983044E+03 0.  0.
         24    2    1    2    0    0 -0.31936047282E+03  0.53865888270E+02  0.13781532836E+03  0.36104216628E+03  0.80409797789E+02 0.  0.
        -11    1    3    3    0    0 -0.26636995127E+02  0.50954307213E+02 -0.94720428054E+02  0.11080537182E+03  0.00000000000E+00 0.  1.
         12    1    3    3    0    0  0.61268639005E+02  0.13954847250E+03 -0.23342332125E+03  0.27877243265E+03  0.00000000000E+00 0. -1.
        -11    1    5    5    0    0 -0.26927561837E+03  0.68890713508E+02  0.13413761100E+03  0.30862305122E+03  0.00000000000E+00 0.  1.
         12    1    5    5    0    0 -0.50084854450E+02 -0.15024825238E+02  0.36777173518E+01  0.52419115060E+02  0.00000000000E+00 0. -1.
          5    1    4    4  501    0  0.24126045308E+03 -0.27815816873E+03 -0.12904079502E+03  0.39019506638E+03  0.47000000000E+01 0.  1.
         -5    1    4    4    0  501  0.49004987590E+01 -0.29154397270E+02  0.21294846617E+02  0.36736279898E+02  0.47000000000E+01 0.  1.
          1    1    1    2  502    0  0.30232807321E+02  0.45076808103E+02 -0.17355371119E+04  0.17363856161E+04  0.00000000000E+00 0. -1.
          1    1    1    2  503    0  0.83350697822E+01  0.17867089915E+02  0.12398588906E+04  0.12400156349E+04  0.00000000000E+00 0. -1.
<mgrwt>
<rscale>  0 0.32717983E+02</rscale>
<asrwt>0</asrwt>
<pdfrwt beam="1">  1        2 0.24707353E+00 0.19715636E+02</pdfrwt>
<pdfrwt beam="2">  1        2 0.36380185E+00 0.54295303E+02</pdfrwt>
<totfact> 0.13884554E+01</totfact>
</mgrwt>
</event>
<event>
13    1  0.1595792E-008  0.6976925E+02  0.7546771E-02  0.1633989E+00
          2   -1    0    0  502    0  0.00000000000E+00  0.00000000000E+00  0.28955573570E+04  0.28955573570E+04  0.00000000000E+00 0. -1.
          2   -1    0    0  503    0 -0.00000000000E+00 -0.00000000000E+00 -0.10165010747E+04  0.10165010747E+04  0.00000000000E+00 0. -1.
         24    2    1    2    0    0 -0.79552105967E+02 -0.87709044673E+01 -0.19690901270E+02  0.11453649220E+03  0.79532446986E+02 0.  0.
         25    2    1    2    0    0  0.90546322358E+02  0.11249219047E+03  0.73811169669E+03  0.76242205005E+03  0.12500150482E+03 0.  0.
         24    2    1    2    0    0 -0.69238450676E+02 -0.50525012001E+02  0.10313817380E+04  0.10380429542E+04  0.80238054903E+02 0.  0.
        -11    1    5    5    0    0  0.15328692942E+02 -0.23169148518E+02  0.29892629101E+03  0.30021443291E+03  0.00000000000E+00 0.  1.
         12    1    5    5    0    0 -0.84567143618E+02 -0.27355863483E+02  0.73245544697E+03  0.73782852130E+03  0.00000000000E+00 0. -1.
        -11    1    3    3    0    0 -0.68447934081E+02 -0.29489275966E+02  0.11571096968E+02  0.75422989612E+02  0.00000000000E+00 0.  1.
         12    1    3    3    0    0 -0.11104171886E+02  0.20718371498E+02 -0.31261998239E+02  0.39113502588E+02  0.00000000000E+00 0. -1.
          5    1    4    4  501    0  0.13097608812E+02  0.30251501495E+02  0.47346238800E+03  0.47463188215E+03  0.47000000000E+01 0.  1.
         -5    1    4    4    0  501  0.77448713546E+02  0.82240688979E+02  0.26464930869E+03  0.28779016790E+03  0.47000000000E+01 0.  1.
          1    1    1    2  502    0  0.36318671271E+01 -0.97871461408E+01  0.10618268178E+04  0.10618781332E+04  0.00000000000E+00 0. -1.
          1    1    1    2  503    0  0.54612367157E+02 -0.43409127864E+02 -0.93257306887E+03  0.93517880206E+03  0.00000000000E+00 0. -1.
<mgrwt>
<rscale>  0 0.26987797E+02</rscale>
<asrwt>0</asrwt>
<pdfrwt beam="1">  1        2 0.42581726E+00 0.10439286E+02</pdfrwt>
<pdfrwt beam="2">  1        2 0.14948545E+00 0.69769253E+02</pdfrwt>
<totfact> 0.22320937E+01</totfact>
</mgrwt>
</event>
<event>
13    1  0.1595792E-008  0.8198533E+02  0.7546771E-02  0.1345067E+00
          2   -1    0    0  502    0  0.00000000000E+00  0.00000000000E+00  0.19880610819E+04  0.19880610819E+04  0.00000000000E+00 0. -1.
          2   -1    0    0  503    0 -0.00000000000E+00 -0.00000000000E+00 -0.57978502949E+03  0.57978502949E+03  0.00000000000E+00 0. -1.
         24    2    1    2    0    0  0.12497419713E+03  0.63913766964E+02 -0.12192051406E+03  0.20286010013E+03  0.81142399053E+02 0.  0.
         25    2    1    2    0    0 -0.93727714653E+02  0.99677075112E+02 -0.28740136329E+02  0.18753832747E+03  0.12499690011E+03 0.  0.
         24    2    1    2    0    0 -0.72788556761E+01 -0.15900913116E+02  0.93170234618E+02  0.12540227014E+03  0.82092727808E+02 0.  0.
        -11    1    3    3    0    0  0.68709541534E+02  0.68733150706E+02 -0.44137580081E+02  0.10673974461E+03  0.00000000000E+00 0.  1.
         12    1    3    3    0    0  0.56264655592E+02 -0.48193837427E+01 -0.77782933975E+02  0.96120355525E+02  0.00000000000E+00 0. -1.
        -13    1    5    5    0    0 -0.44351817398E+02 -0.14410560521E+02  0.47590409783E+02  0.66630286389E+02  0.00000000000E+00 0.  1.
         14    1    5    5    0    0  0.37072961722E+02 -0.14903525950E+01  0.45579824835E+02  0.58771983748E+02  0.00000000000E+00 0. -1.
          5    1    4    4  501    0 -0.70638144870E+02  0.10215738849E+03 -0.68005586767E+02  0.14167826003E+03  0.47000000000E+01 0. -1.
         -5    1    4    4    0  501 -0.23089569783E+02 -0.24803133795E+01  0.39265450438E+02  0.45860067437E+02  0.47000000000E+01 0. -1.
          1    1    1    2  502    0 -0.11267342272E+02 -0.80980663525E+02  0.17540080588E+04  0.17559126092E+04  0.00000000000E+00 0. -1.
          1    1    1    2  503    0 -0.12700284525E+02 -0.66709265435E+02 -0.28824159060E+03  0.29613280446E+03  0.00000000000E+00 0. -1.
<mgrwt>
<rscale>  0 0.74615115E+02</rscale>
<asrwt>0</asrwt>
<pdfrwt beam="1">  1        2 0.29236192E+00 0.81985326E+02</pdfrwt>
<pdfrwt beam="2">  1        2 0.85262505E-01 0.67907461E+02</pdfrwt>
<totfact> 0.83788469E+01</totfact>
</mgrwt>
</event>
<event>
13    1  0.1595792E-008  0.1680321E+03  0.7546771E-02  0.1188340E+00
          2   -1    0    0  503    0  0.00000000000E+00  0.00000000000E+00  0.19043976786E+04  0.19043976786E+04  0.00000000000E+00 0. -1.
          2   -1    0    0  502    0 -0.00000000000E+00 -0.00000000000E+00 -0.10495240433E+04  0.10495240433E+04  0.00000000000E+00 0. -1.
         24    2    1    2    0    0 -0.25686630046E+03 -0.12672771800E+03 -0.47693260920E+03  0.56220545847E+03  0.81055863407E+02 0.  0.
         25    2    1    2    0    0  0.24387599843E+03  0.23017940094E+03  0.36454437335E+03  0.51085910003E+03  0.12500544272E+03 0.  0.
         24    2    1    2    0    0 -0.66245914371E+02 -0.76900209236E+02 -0.31130181041E+01  0.12814257304E+03  0.78157947731E+02 0.  0.
        -13    1    3    3    0    0 -0.86982077185E+02 -0.65435230224E+02 -0.24625864550E+03  0.26924147450E+03  0.00000000000E+00 0.  1.
         14    1    3    3    0    0 -0.16988422328E+03 -0.61292487780E+02 -0.23067396370E+03  0.29296398397E+03  0.00000000000E+00 0. -1.
        -13    1    5    5    0    0  0.78995932692E+01  0.75085714113E+01 -0.11040612005E+02  0.15513778776E+02  0.00000000000E+00 0.  1.
         14    1    5    5    0    0 -0.74145507640E+02 -0.84408780647E+02  0.79275939006E+01  0.11262879427E+03  0.00000000000E+00 0. -1.
          5    1    4    4  501    0  0.78544535780E+02  0.94601406992E+02  0.22207325225E+03  0.25388440218E+03  0.47000000000E+01 0. -1.
         -5    1    4    4    0  501  0.16533146265E+03  0.13557799395E+03  0.14247112110E+03  0.25697469785E+03  0.47000000000E+01 0. -1.
          1    1    1    2  502    0 -0.25285855122E+02 -0.15881340729E+03 -0.36913254542E+03  0.40264116642E+03  0.00000000000E+00 0. -1.
          1    1    1    2  503    0  0.10452207153E+03  0.13226193359E+03  0.13395074347E+04  0.13500734240E+04  0.00000000000E+00 0. -1.
<mgrwt>
<rscale>  0 0.16031652E+03</rscale>
<asrwt>0</asrwt>
<pdfrwt beam="1">  1        2 0.28005848E+00 0.16803213E+03</pdfrwt>
<pdfrwt beam="2">  1        2 0.15434177E+00 0.15295519E+03</pdfrwt>
<totfact> 0.40660111E+01</totfact>
</mgrwt>
</event>
<event>
13    1  0.1595792E-008  0.2315631E+03  0.7546771E-02  0.1170745E+00
          2   -1    0    0  503    0  0.00000000000E+00  0.00000000000E+00  0.20733746189E+04  0.20733746189E+04  0.00000000000E+00 0. -1.
          2   -1    0    0  502    0 -0.00000000000E+00 -0.00000000000E+00 -0.22975312965E+04  0.22975312965E+04  0.00000000000E+00 0. -1.
         24    2    1    2    0    0  0.27949210510E+03 -0.84996357085E+02 -0.90233331925E+03  0.95163336168E+03  0.77848689742E+02 0.  0.
         25    2    1    2    0    0 -0.18145357521E+03  0.34685786090E+03 -0.16680343438E+03  0.44348971565E+03  0.12499586607E+03 0.  0.
         24    2    1    2    0    0  0.10516073525E+03 -0.10255112889E+02  0.32314155538E+03  0.35041132275E+03  0.84874511636E+02 0.  0.
        -11    1    3    3    0    0  0.16560919307E+03 -0.62588955995E+02 -0.65358672292E+03  0.67714059590E+03  0.00000000000E+00 0.  1.
         12    1    3    3    0    0  0.11388291203E+03 -0.22407401091E+02 -0.24874659633E+03  0.27449276578E+03  0.00000000000E+00 0. -1.
        -13    1    5    5    0    0  0.11707866631E+03 -0.13961246717E+02  0.25246451153E+03  0.27864073661E+03  0.00000000000E+00 0.  1.
         14    1    5    5    0    0 -0.11917931067E+02  0.37061338279E+01  0.70677043846E+02  0.71770586145E+02  0.00000000000E+00 0. -1.
          5    1    4    4  501    0 -0.19767708680E+03  0.33159537241E+03 -0.16719111773E+03  0.42072161996E+03  0.47000000000E+01 0.  1.
         -5    1    4    4    0  501  0.16223511586E+02  0.15262488487E+02  0.38768334330E+00  0.22768095691E+02  0.47000000000E+01 0.  1.
          1    1    1    2  502    0 -0.20118618655E+03 -0.11633854529E+03 -0.10359610111E+04  0.10617088844E+04  0.00000000000E+00 0. -1.
          1    1    1    2  503    0 -0.20130785853E+01 -0.13526784564E+03  0.15577995316E+04  0.15636626309E+04  0.00000000000E+00 0. -1.
<mgrwt>
<rscale>  0 0.17699297E+03</rscale>
<asrwt>0</asrwt>
<pdfrwt beam="1">  1        2 0.30490803E+00 0.13528282E+03</pdfrwt>
<pdfrwt beam="2">  1        2 0.33787225E+00 0.23156312E+03</pdfrwt>
<totfact> 0.76156529E+00</totfact>
</mgrwt>
</event>
<event>
13    1  0.1595792E-008  0.1557013E+03  0.7546771E-02  0.1250598E+00
         -3   -1    0    0    0  501 -0.00000000000E+00  0.00000000000E+00  0.92496646782E+03  0.92496646782E+03  0.00000000000E+00 0.  1.
          2   -1    0    0  503    0  0.00000000000E+00 -0.00000000000E+00 -0.25820141064E+04  0.25820141064E+04  0.00000000000E+00 0. -1.
         24    2    1    2    0    0  0.54904377980E+02  0.12169108620E+02  0.49256180593E+02  0.10973434779E+03  0.80329806622E+02 0.  0.
         25    2    1    2    0    0  0.69745287386E+02  0.67828930940E+02 -0.81002324017E+02  0.17790858936E+03  0.12499968275E+03 0.  0.
         24    2    1    2    0    0  0.33704489887E+02 -0.22503191075E+02 -0.10913983813E+03  0.14157742505E+03  0.80562254009E+02 0.  0.
        -11    1    3    3    0    0  0.71683508158E+02  0.15002804896E+02  0.20048671296E+02  0.75931276279E+02  0.00000000000E+00 0.  1.
         12    1    3    3    0    0 -0.16779130178E+02 -0.28336962757E+01  0.29207509298E+02  0.33803071510E+02  0.00000000000E+00 0. -1.
        -13    1    5    5    0    0 -0.73474065002E+01 -0.35402046107E+02 -0.84691101293E+02  0.92086219865E+02  0.00000000000E+00 0.  1.
         14    1    5    5    0    0  0.41051896387E+02  0.12898855031E+02 -0.24448736832E+02  0.49491205186E+02  0.00000000000E+00 0. -1.
          5    1    4    4  502    0  0.97502948565E+02  0.81361655038E+02 -0.67311517637E+02  0.14380359626E+03  0.47000000000E+01 0.  1.
         -5    1    4    4    0  502 -0.27757661180E+02 -0.13532724098E+02 -0.13690806380E+02  0.34104993110E+02  0.47000000000E+01 0.  1.
          1    1    1    2  503    0 -0.10192964318E+03 -0.12209890888E+03 -0.22918406237E+04  0.22973530943E+04  0.00000000000E+00 0. -1.
         -4    1    1    2    0  501 -0.56424512073E+02  0.64604060397E+02  0.77567896660E+03  0.78040711773E+03  0.00000000000E+00 0.  1.
<mgrwt>
<rscale>  0 0.11556528E+03</rscale>
<asrwt>0</asrwt>
<pdfrwt beam="2">  1        2 0.37970795E+00 0.15570131E+03</pdfrwt>
<pdfrwt beam="1">  1       -3 0.13602448E+00 0.85775347E+02</pdfrwt>
<totfact> 0.12171060E+00</totfact>
</mgrwt>
</event>
<event>
13    1  0.1595792E-008  0.8907638E+02  0.7546771E-02  0.1416645E+00
          2   -1    0    0  502    0  0.00000000000E+00  0.00000000000E+00  0.41598593559E+04  0.41598593559E+04  0.00000000000E+00 0. -1.
          2   -1    0    0  503    0 -0.00000000000E+00 -0.00000000000E+00 -0.27225019892E+04  0.27225019892E+04  0.00000000000E+00 0. -1.
         24    2    1    2    0    0 -0.46143438909E+02 -0.17178778342E+03 -0.59187748094E+03  0.62327319817E+03  0.80686229481E+02 0.  0.
         25    2    1    2    0    0  0.17819657018E+02  0.87067991623E+02 -0.23342107096E+02  0.15513211986E+03  0.12499098090E+03 0.  0.
         24    2    1    2    0    0 -0.46677421457E+01 -0.25864901242E+00  0.31739362626E+03  0.32736601993E+03  0.80049623976E+02 0.  0.
        -11    1    5    5    0    0  0.14235251727E+02  0.34378634093E+02  0.10651238036E+03  0.11282473152E+03  0.00000000000E+00 0.  1.
         12    1    5    5    0    0 -0.18902993872E+02 -0.34637283105E+02  0.21088124591E+03  0.21454128841E+03  0.00000000000E+00 0. -1.
        -13    1    3    3    0    0 -0.55397940137E+02 -0.56321776746E+02 -0.26181648625E+03  0.27347567859E+03  0.00000000000E+00 0.  1.
         14    1    3    3    0    0  0.92545012279E+01 -0.11546600668E+03 -0.33006099469E+03  0.34979751959E+03  0.00000000000E+00 0. -1.
          5    1    4    4  501    0 -0.43268331057E+02  0.81560447096E+01  0.16942825314E+02  0.47411168172E+02  0.47000000000E+01 0. -1.
         -5    1    4    4    0  501  0.61087988075E+02  0.78911946913E+02 -0.40284932411E+02  0.10772095169E+03  0.47000000000E+01 0. -1.
          1    1    1    2  502    0  0.66982411500E+02  0.77171760255E+02  0.37550410548E+04  0.37564312116E+04  0.00000000000E+00 0. -1.
          1    1    1    2  503    0 -0.33990887463E+02  0.78066805583E+01 -0.20198577263E+04  0.20201587956E+04  0.00000000000E+00 0. -1.
<mgrwt>
<rscale>  0 0.55737010E+02</rscale>
<asrwt>0</asrwt>
<pdfrwt beam="1">  1        2 0.61174402E+00 0.89076384E+02</pdfrwt>
<pdfrwt beam="2">  1        2 0.40036794E+00 0.34875847E+02</pdfrwt>
<totfact> 0.43351822E-01</totfact>
</mgrwt>
</event>
<event>
13    1  0.1595792E-008  0.9554970E+02  0.7546771E-02  0.1426563E+00
          2   -1    0    0  503    0  0.00000000000E+00  0.00000000000E+00  0.17103848515E+04  0.17103848515E+04  0.00000000000E+00 0. -1.
         -1   -1    0    0    0  501 -0.00000000000E+00 -0.00000000000E+00 -0.58469463828E+03  0.58469463828E+03  0.00000000000E+00 0.  1.
         24    2    1    2    0    0  0.20289199889E+02  0.18427225399E+03 -0.24528305674E+03  0.32434834954E+03  0.10329646026E+03 0.  0.
         25    2    1    2    0    0  0.10118180106E+03 -0.23921630532E+03  0.40110182022E+03  0.49393198260E+03  0.12499574254E+03 0.  0.
         24    2    1    2    0    0 -0.13103688198E+02 -0.68261010756E+01  0.10757253826E+03  0.13970001828E+03  0.87897336813E+02 0.  0.
        -11    1    3    3    0    0 -0.35580743411E+02  0.82926109462E+02 -0.69534220098E+02  0.11391986963E+03  0.00000000000E+00 0.  1.
         12    1    3    3    0    0  0.55869943299E+02  0.10134614453E+03 -0.17574883665E+03  0.21042847991E+03  0.00000000000E+00 0. -1.
        -11    1    5    5    0    0 -0.31367985389E+02  0.27295353650E+02  0.85675465607E+02  0.95232726755E+02  0.00000000000E+00 0.  1.
         12    1    5    5    0    0  0.18264297191E+02 -0.34121454726E+02  0.21897072650E+02  0.44467291521E+02  0.00000000000E+00 0. -1.
          5    1    4    4  502    0 -0.75397440171E+01 -0.18453126122E+02 -0.30761953442E+01  0.20710349618E+02  0.47000000000E+01 0.  1.
         -5    1    4    4    0  502  0.10872154507E+03 -0.22076317920E+03  0.40417801557E+03  0.47322163298E+03  0.47000000000E+01 0.  1.
          1    1    1    2  503    0 -0.24487000811E+02  0.17556831638E+02  0.10900146319E+04  0.10904309943E+04  0.00000000000E+00 0. -1.
         -2    1    1    2    0  501 -0.83880311937E+02  0.44213320763E+02 -0.22771572042E+03  0.24666814507E+03  0.00000000000E+00 0.  1.
<mgrwt>
<rscale>  0 0.53656069E+02</rscale>
<asrwt>0</asrwt>
<pdfrwt beam="1">  1        2 0.25152718E+00 0.30130641E+02</pdfrwt>
<pdfrwt beam="2">  1       -1 0.85984506E-01 0.95549701E+02</pdfrwt>
<totfact> 0.23720225E+01</totfact>
</mgrwt>
</event>
<event>
13    1  0.1595792E-008  0.1112408E+03  0.7546771E-02  0.1335636E+00
          2   -1    0    0  502    0  0.00000000000E+00  0.00000000000E+00  0.24443842703E+04  0.24443842703E+04  0.00000000000E+00 0. -1.
          2   -1    0    0  503    0 -0.00000000000E+00 -0.00000000000E+00 -0.97010997834E+03  0.97010997834E+03  0.00000000000E+00 0. -1.
         24    2    1    2    0    0 -0.41480062973E+02  0.26629770447E+02 -0.64479218603E+02  0.11263002978E+03  0.78091060167E+02 0.  0.
         25    2    1    2    0    0  0.13584697769E+03 -0.66691659962E+02  0.33227890299E+03  0.38591959554E+03  0.12498994356E+03 0.  0.
         24    2    1    2    0    0 -0.48799987577E+02 -0.19105779457E+02  0.36738494865E+03  0.37959143089E+03  0.79821578003E+02 0.  0.
        -11    1    3    3    0    0 -0.47268559759E+02 -0.15436436011E+02 -0.31476969659E+02  0.58850657747E+02  0.00000000000E+00 0.  1.
         12    1    3    3    0    0  0.57884967854E+01  0.42066206457E+02 -0.33002248943E+02  0.53779372031E+02  0.00000000000E+00 0. -1.
        -13    1    5    5    0    0 -0.53240956810E+02 -0.44638231489E+02  0.25990530567E+03  0.26903148349E+03  0.00000000000E+00 0.  1.
         14    1    5    5    0    0  0.44409692322E+01  0.25532452032E+02  0.10747964297E+03  0.11055994739E+03  0.00000000000E+00 0. -1.
          5    1    4    4  501    0  0.63029303691E+02 -0.16330044109E+01  0.25082931485E+03  0.25867507614E+03  0.47000000000E+01 0.  1.
         -5    1    4    4    0  501  0.72817674001E+02 -0.65058655552E+02  0.81449588145E+02  0.12724451940E+03  0.47000000000E+01 0.  1.
          1    1    1    2  502    0 -0.98306126518E+02  0.46215751255E+02  0.16851020092E+04  0.16885996481E+04  0.00000000000E+00 0. -1.
          1    1    1    2  503    0  0.52739199377E+02  0.12951917718E+02 -0.84601235021E+03  0.84775354440E+03  0.00000000000E+00 0. -1.
<mgrwt>
<rscale>  0 0.77724363E+02</rscale>
<asrwt>0</asrwt>
<pdfrwt beam="1">  1        2 0.35946828E+00 0.11124079E+03</pdfrwt>
<pdfrwt beam="2">  1        2 0.14266323E+00 0.54306310E+02</pdfrwt>
<totfact> 0.26913939E+01</totfact>
</mgrwt>
</event>
<event>
13    1  0.1595792E-008  0.6106026E+02  0.7546771E-02  0.1444186E+00
          2   -1    0    0  502    0  0.00000000000E+00  0.00000000000E+00  0.97734931762E+03  0.97734931762E+03  0.00000000000E+00 0. -1.
          2   -1    0    0  503    0 -0.00000000000E+00 -0.00000000000E+00 -0.10839715170E+04  0.10839715170E+04  0.00000000000E+00 0. -1.
         24    2    1    2    0    0  0.21290474809E+01 -0.37240197715E+02 -0.50942709240E+03  0.51722861837E+03  0.81351804076E+02 0.  0.
         25    2    1    2    0    0 -0.64349981880E+02  0.30005870326E+02 -0.27303754366E+03  0.30857079241E+03  0.12500064503E+03 0.  0.
         24    2    1    2    0    0 -0.10009432029E+02  0.23033867155E+02  0.34491747522E+02  0.92840289237E+02  0.82455387288E+02 0.  0.
        -11    1    5    5    0    0  0.12391846771E+02 -0.27084713494E+02  0.20594402844E+02  0.36211448465E+02  0.00000000000E+00 0.  1.
         12    1    5    5    0    0 -0.22401278800E+02  0.50118580649E+02  0.13897344678E+02  0.56628840772E+02  0.00000000000E+00 0. -1.
        -13    1    3    3    0    0 -0.35028897072E+02 -0.26089468515E+02 -0.16723915952E+03  0.17284854779E+03  0.00000000000E+00 0.  1.
         14    1    3    3    0    0  0.37157944553E+02 -0.11150729200E+02 -0.34218793288E+03  0.34438007058E+03  0.00000000000E+00 0. -1.
          5    1    4    4  501    0 -0.53914917001E+02  0.65649760113E+02 -0.25123057678E+03  0.26524630438E+03  0.47000000000E+01 0. -1.
         -5    1    4    4    0  501 -0.10435064879E+02 -0.35643889787E+02 -0.21806966877E+02  0.43324488024E+02  0.47000000000E+01 0. -1.
          1    1    1    2  502    0  0.42192105964E+02 -0.44137712634E+02  0.88926103883E+03  0.89135487134E+03  0.00000000000E+00 0. -1.
          1    1    1    2  503    0  0.30038260465E+02  0.28338172869E+02 -0.24791034963E+03  0.25132626322E+03  0.00000000000E+00 0. -1.
<mgrwt>
<rscale>  0 0.50214907E+02</rscale>
<asrwt>0</asrwt>
<pdfrwt beam="1">  1        2 0.14372784E+00 0.61060264E+02</pdfrwt>
<pdfrwt beam="2">  1        2 0.15940757E+00 0.41295873E+02</pdfrwt>
<totfact> 0.13333295E+02</totfact>
</mgrwt>
</event>
<event>
13    1  0.1595792E-008  0.1072974E+03  0.7546771E-02  0.1281336E+00
          2   -1    0    0  502    0  0.00000000000E+00  0.00000000000E+00  0.41758729310E+04  0.41758729310E+04  0.00000000000E+00 0. -1.
          2   -1    0    0  503    0 -0.00000000000E+00 -0.00000000000E+00 -0.10816061172E+04  0.10816061172E+04  0.00000000000E+00 0. -1.
         24    2    1    2    0    0 -0.99204265644E+02  0.73907872022E+02 -0.23361219246E+03  0.27611462084E+03  0.79754419988E+02 0.  0.
         25    2    1    2    0    0 -0.32442146225E+01  0.13081912370E+03 -0.18831054170E+02  0.18194468590E+03  0.12500036829E+03 0.  0.
         24    2    1    2    0    0  0.97280489532E+02 -0.22767343181E+03  0.14651885681E+03  0.29915067926E+03  0.82004074929E+02 0.  0.
        -13    1    3    3    0    0 -0.26086649698E+02 -0.72405925273E+01 -0.99663164197E+02  0.10327480705E+03  0.00000000000E+00 0.  1.
         14    1    3    3    0    0 -0.73117615946E+02  0.81148464549E+02 -0.13394902827E+03  0.17283981380E+03  0.00000000000E+00 0. -1.
        -13    1    5    5    0    0  0.99037951857E+02 -0.22727343033E+03  0.15373523459E+03  0.29171261611E+03  0.00000000000E+00 0.  1.
         14    1    5    5    0    0 -0.17574623247E+01 -0.40000147607E+00 -0.72163777865E+01  0.74380631458E+01  0.00000000000E+00 0. -1.
          5    1    4    4  501    0  0.54299738247E+02  0.52724060618E+02  0.18233735589E+02  0.77992610261E+02  0.47000000000E+01 0.  1.
         -5    1    4    4    0  501 -0.57543952869E+02  0.78095063082E+02 -0.37064789759E+02  0.10395207564E+03  0.47000000000E+01 0.  1.
          1    1    1    2  502    0  0.90667986037E+02  0.57670463727E+02  0.38462007853E+04  0.38477015278E+04  0.00000000000E+00 0. -1.
          1    1    1    2  503    0 -0.85499995302E+02 -0.34724027642E+02 -0.64600958166E+03  0.65256753435E+03  0.00000000000E+00 0. -1.
<mgrwt>
<rscale>  0 0.99506988E+02</rscale>
<asrwt>0</asrwt>
<pdfrwt beam="1">  1        2 0.61409895E+00 0.10729739E+03</pdfrwt>
<pdfrwt beam="2">  1        2 0.15905972E+00 0.92282215E+02</pdfrwt>
<totfact> 0.22735672E+00</totfact>
</mgrwt>
</event>
<event>
13    1  0.1595792E-008  0.3630069E+02  0.7546771E-02  0.1630369E+00
          2   -1    0    0  502    0  0.00000000000E+00  0.00000000000E+00  0.13504136273E+04  0.13504136273E+04  0.00000000000E+00 0. -1.
          2   -1    0    0  503    0 -0.00000000000E+00 -0.00000000000E+00 -0.22392784077E+03  0.22392784077E+03  0.00000000000E+00 0. -1.
         24    2    1    2    0    0 -0.33665730839E+02 -0.23501827755E+02 -0.11482560376E+03  0.14861934224E+03  0.84953353472E+02 0.  0.
         25    2    1    2    0    0 -0.15169554076E+02  0.11617801099E+03  0.36861531394E+03  0.40648051516E+03  0.12498685500E+03 0.  0.
         24    2    1    2    0    0  0.23825979346E+02 -0.45310153956E+02  0.71446302937E+03  0.71992711633E+03  0.72228423455E+02 0.  0.
        -13    1    5    5    0    0 -0.12884412978E+02  0.12647615252E+02  0.21797580767E+03  0.21872225081E+03  0.00000000000E+00 0.  1.
         14    1    5    5    0    0  0.36710392324E+02 -0.57957769208E+02  0.49648722170E+03  0.50120486553E+03  0.00000000000E+00 0. -1.
        -13    1    3    3    0    0 -0.52437655776E+02 -0.34697457469E+02 -0.50390359009E+02  0.80577972046E+02  0.00000000000E+00 0.  1.
         14    1    3    3    0    0  0.18771924938E+02  0.11195629713E+02 -0.64435244756E+02  0.68041370190E+02  0.00000000000E+00 0. -1.
          5    1    4    4  501    0  0.39011832506E+02  0.96707763200E+02  0.29489061130E+03  0.31282083878E+03  0.47000000000E+01 0.  1.
         -5    1    4    4    0  501 -0.54181386582E+02  0.19470247793E+02  0.73724702641E+02  0.93659676385E+02  0.47000000000E+01 0.  1.
          1    1    1    2  502    0  0.72148887614E+00 -0.20475340519E+02  0.22362101070E+03  0.22455760184E+03  0.00000000000E+00 0. -1.
          1    1    1    2  503    0  0.24287816693E+02 -0.26890688763E+02 -0.65387963704E+02  0.74756892520E+02  0.00000000000E+00 0. -1.
<mgrwt>
<rscale>  0 0.27271419E+02</rscale>
<asrwt>0</asrwt>
<pdfrwt beam="1">  1        2 0.19859024E+00 0.20488048E+02</pdfrwt>
<pdfrwt beam="2">  1        2 0.32930565E-01 0.36300691E+02</pdfrwt>
<totfact> 0.50347928E+02</totfact>
</mgrwt>
</event>
<event>
13    1  0.1595792E-008  0.6923785E+02  0.7546771E-02  0.1414651E+00
         -3   -1    0    0    0  501 -0.00000000000E+00  0.00000000000E+00  0.73336245333E+03  0.73336245333E+03  0.00000000000E+00 0.  1.
          2   -1    0    0  503    0  0.00000000000E+00 -0.00000000000E+00 -0.14293417503E+04  0.14293417503E+04  0.00000000000E+00 0. -1.
         24    2    1    2    0    0  0.33131757228E+02 -0.11864399957E+02  0.19691028909E+03  0.21550371946E+03  0.80185496382E+02 0.  0.
         25    2    1    2    0    0 -0.77004150278E+02 -0.73690710564E+02  0.21122958710E+03  0.26758766141E+03  0.12500103234E+03 0.  0.
         24    2    1    2    0    0  0.31167992871E+02 -0.27495805125E+02  0.10628539351E+03  0.14138289501E+03  0.83457025173E+02 0.  0.
        -11    1    5    5    0    0 -0.72671850879E+01  0.11445982301E+02  0.79160866686E+02  0.80313543717E+02  0.00000000000E+00 0.  1.
         12    1    5    5    0    0  0.38435177959E+02 -0.38941787426E+02  0.27124526822E+02  0.61069351298E+02  0.00000000000E+00 0. -1.
        -13    1    3    3    0    0  0.55317221744E+02 -0.64787404826E+01  0.87388468408E+02  0.10362776419E+03  0.00000000000E+00 0.  1.
         14    1    3    3    0    0 -0.22185464516E+02 -0.53856594749E+01  0.10952182068E+03  0.11187595527E+03  0.00000000000E+00 0. -1.
          5    1    4    4  502    0  0.44410660804E+01 -0.81957019624E+02  0.10941614142E+03  0.13685999466E+03  0.47000000000E+01 0.  1.
         -5    1    4    4    0  502 -0.81445216358E+02  0.82663090600E+01  0.10181344568E+03  0.13072766675E+03  0.47000000000E+01 0.  1.
          1    1    1    2  503    0  0.42730696466E+00  0.69169295308E+02 -0.13702611133E+04  0.13720058647E+04  0.00000000000E+00 0. -1.
         -4    1    1    2    0  501  0.12277093214E+02  0.43881620338E+02  0.15985654668E+03  0.16622406306E+03  0.00000000000E+00 0.  1.
<mgrwt>
<rscale>  0 0.56168854E+02</rscale>
<asrwt>0</asrwt>
<pdfrwt beam="2">  1        2 0.21019731E+00 0.69237855E+02</pdfrwt>
<pdfrwt beam="1">  1       -3 0.10784742E+00 0.45566694E+02</pdfrwt>
<totfact> 0.81989717E+00</totfact>
</mgrwt>
</event>
<event>
13    1  0.1595792E-008  0.4245743E+02  0.7546771E-02  0.1614643E+00
          2   -1    0    0  503    0  0.00000000000E+00  0.00000000000E+00  0.68400862669E+03  0.68400862669E+03  0.00000000000E+00 0. -1.
          2   -1    0    0  502    0 -0.00000000000E+00 -0.00000000000E+00 -0.20072931166E+04  0.20072931166E+04  0.00000000000E+00 0. -1.
         24    2    1    2    0    0  0.18935987297E+01 -0.39042639651E+02 -0.14230148990E+03  0.16841230348E+03  0.81148484332E+02 0.  0.
         25    2    1    2    0    0  0.97143084214E+01  0.82867460205E+02 -0.87472871262E+02  0.17389084114E+03  0.12500055071E+03 0.  0.
         24    2    1    2    0    0  0.37469458022E+01 -0.61980230804E+02  0.39675337239E+03  0.41505686620E+03  0.10489697356E+03 0.  0.
        -13    1    5    5    0    0  0.31297573354E+02 -0.74432278563E+02  0.35134647823E+03  0.36050527035E+03  0.00000000000E+00 0.  1.
         14    1    5    5    0    0 -0.27550627551E+02  0.12452047759E+02  0.45406894166E+02  0.54551595849E+02  0.00000000000E+00 0. -1.
        -13    1    3    3    0    0  0.21849287890E+02  0.18723895594E+02 -0.50637958867E+02  0.58242411744E+02  0.00000000000E+00 0.  1.
         14    1    3    3    0    0 -0.19955689161E+02 -0.57766535246E+02 -0.91663531029E+02  0.11016989173E+03  0.00000000000E+00 0. -1.
          5    1    4    4  501    0  0.69800704488E+01 -0.33114716705E+02 -0.18994414916E+02  0.39091989511E+02  0.47000000000E+01 0.  1.
         -5    1    4    4    0  501  0.27342379726E+01  0.11598217691E+03 -0.68478456346E+02  0.13479885163E+03  0.47000000000E+01 0.  1.
          1    1    1    2  502    0 -0.22669587656E+02  0.35911540241E+02 -0.17114231056E+04  0.17119499395E+04  0.00000000000E+00 0. -1.
          1    1    1    2  503    0  0.73147347030E+01 -0.17756129991E+02  0.22115960446E+03  0.22199179296E+03  0.00000000000E+00 0. -1.
<mgrwt>
<rscale>  0 0.28554222E+02</rscale>
<asrwt>0</asrwt>
<pdfrwt beam="1">  1        2 0.10058950E+00 0.19203789E+02</pdfrwt>
<pdfrwt beam="2">  1        2 0.29519016E+00 0.42457434E+02</pdfrwt>
<totfact> 0.75875788E+01</totfact>
</mgrwt>
</event>
<event>
13    1  0.1595792E-008  0.1495643E+03  0.7546771E-02  0.1348838E+00
          2   -1    0    0  503    0  0.00000000000E+00  0.00000000000E+00  0.46731586600E+03  0.46731586600E+03  0.00000000000E+00 0. -1.
          2   -1    0    0  502    0 -0.00000000000E+00 -0.00000000000E+00 -0.26708529302E+04  0.26708529302E+04  0.00000000000E+00 0. -1.
         24    2    1    2    0    0 -0.22113921395E+02 -0.15973193197E+02 -0.65607789885E+03  0.66167993372E+03  0.81473657727E+02 0.  0.
         25    2    1    2    0    0  0.29901074465E+02  0.10754969303E+02 -0.51949888894E+03  0.53527008122E+03  0.12500088251E+03 0.  0.
         24    2    1    2    0    0  0.12452446775E+03  0.34658467382E+02  0.13546592964E+03  0.20251220390E+03  0.77153238478E+02 0.  0.
        -13    1    3    3    0    0 -0.37542701544E+02 -0.37487565006E+02 -0.30291183407E+03  0.30752292791E+03  0.00000000000E+00 0.  1.
         14    1    3    3    0    0  0.15428780149E+02  0.21514371810E+02 -0.35316606478E+03  0.35415700581E+03  0.00000000000E+00 0. -1.
        -13    1    5    5    0    0 -0.10654745849E+02  0.61521227323E+01  0.12917528076E+02  0.17839135484E+02  0.00000000000E+00 0.  1.
         14    1    5    5    0    0  0.13517921359E+03  0.28506344650E+02  0.12254840156E+03  0.18467306842E+03  0.00000000000E+00 0. -1.
          5    1    4    4  501    0 -0.85892085625E+01 -0.54651771091E+01  0.25766491827E+01  0.11505293807E+02  0.47000000000E+01 0.  1.
         -5    1    4    4    0  501  0.38490283027E+02  0.16220146412E+02 -0.52207553812E+03  0.52376478742E+03  0.47000000000E+01 0.  1.
          1    1    1    2  502    0  0.20747315889E+02  0.29469542881E+02 -0.14274427939E+04  0.14278976976E+04  0.00000000000E+00 0. -1.
          1    1    1    2  503    0 -0.15305893670E+03 -0.58909786369E+02  0.26401658786E+03  0.31080887970E+03  0.00000000000E+00 0. -1.
<mgrwt>
<rscale>  0 0.73418968E+02</rscale>
<asrwt>0</asrwt>
<pdfrwt beam="1">  1        2 0.68722921E-01 0.14956427E+03</pdfrwt>
<pdfrwt beam="2">  1        2 0.39277249E+00 0.36040326E+02</pdfrwt>
<totfact> 0.55088643E+01</totfact>
</mgrwt>
</event>
<event>
13    1  0.1595792E-008  0.1028394E+03  0.7546771E-02  0.1487156E+00
         -3   -1    0    0    0  501 -0.00000000000E+00  0.00000000000E+00  0.14336096685E+03  0.14336096685E+03  0.00000000000E+00 0.  1.
          2   -1    0    0  503    0  0.00000000000E+00 -0.00000000000E+00 -0.29735191413E+04  0.29735191413E+04  0.00000000000E+00 0. -1.
         24    2    1    2    0    0 -0.47470925798E+02 -0.13010090680E+02 -0.12078100870E+03  0.15237128322E+03  0.78779468348E+02 0.  0.
         25    2    1    2    0    0 -0.56122328871E+02  0.12281318300E+03 -0.56003465803E+03  0.58948998831E+03  0.12500733742E+03 0.  0.
         24    2    1    2    0    0  0.64394210206E+02 -0.12840710242E+01 -0.40606956880E+03  0.41836251893E+03  0.77372084088E+02 0.  0.
        -11    1    5    5    0    0  0.25623073114E+02 -0.28900243403E+02 -0.79986960839E+02  0.88823869814E+02  0.00000000000E+00 0.  1.
         12    1    5    5    0    0  0.38771137092E+02  0.27616172379E+02 -0.32608260796E+03  0.32953864911E+03  0.00000000000E+00 0. -1.
        -13    1    3    3    0    0 -0.29616889394E+02 -0.39565106279E+02 -0.34295679672E+02  0.60156058850E+02  0.00000000000E+00 0.  1.
         14    1    3    3    0    0 -0.17854036404E+02  0.26555015599E+02 -0.86485329024E+02  0.92215224371E+02  0.00000000000E+00 0. -1.
          5    1    4    4  502    0  0.78878380052E+01  0.11049336611E+03 -0.26418726926E+03  0.28651004377E+03  0.47000000000E+01 0. -1.
         -5    1    4    4    0  502 -0.64010166876E+02  0.12319816888E+02 -0.29584738877E+03  0.30297994454E+03  0.47000000000E+01 0. -1.
          1    1    1    2  503    0  0.15051672095E+02 -0.98506081198E+01 -0.18257318421E+04  0.18258204584E+04  0.00000000000E+00 0. -1.
         -4    1    1    2    0  501  0.24147372369E+02 -0.98668413177E+02  0.82458903151E+02  0.13083585923E+03  0.00000000000E+00 0.  1.
<mgrwt>
<rscale>  0 0.43010822E+02</rscale>
<asrwt>0</asrwt>
<pdfrwt beam="2">  1        2 0.43728219E+00 0.17988533E+02</pdfrwt>
<pdfrwt beam="1">  1       -3 0.21082497E-01 0.10283945E+03</pdfrwt>
<totfact> 0.48163128E+01</totfact>
</mgrwt>
</event>
<event>
13    1  0.1595792E-008  0.7772554E+02  0.7546771E-02  0.1362677E+00
          2   -1    0    0  502    0  0.00000000000E+00  0.00000000000E+00  0.11933011618E+04  0.11933011618E+04  0.00000000000E+00 0. -1.
          2   -1    0    0  503    0 -0.00000000000E+00 -0.00000000000E+00 -0.28787269478E+04  0.28787269478E+04  0.00000000000E+00 0. -1.
         24    2    1    2    0    0 -0.65377919739E+02 -0.25689523127E+02 -0.14338418138E+04  0.14380100663E+04  0.83883133011E+02 0.  0.
         25    2    1    2    0    0 -0.31680553598E+02 -0.69625260429E+02 -0.26747680313E+03  0.30499326570E+03  0.12500287013E+03 0.  0.
         24    2    1    2    0    0  0.40504278643E+02  0.10794836125E+03  0.22966694243E+03  0.26867427658E+03  0.78393349001E+02 0.  0.
        -11    1    3    3    0    0  0.86803521021E+01 -0.25444245237E+02 -0.18148622194E+03  0.18346663698E+03  0.00000000000E+00 0.  1.
         12    1    3    3    0    0 -0.74058271841E+02 -0.24527789073E+00 -0.12523555918E+04  0.12545434294E+04  0.00000000000E+00 0. -1.
        -13    1    5    5    0    0 -0.95775909429E-01  0.13780829929E+02 -0.32701252516E+01  0.14163833016E+02  0.00000000000E+00 0.  1.
         14    1    5    5    0    0  0.40600054552E+02  0.94167531319E+02  0.23293706768E+03  0.25451044356E+03  0.00000000000E+00 0. -1.
          5    1    4    4  501    0 -0.43943258806E+02 -0.98344516707E+02 -0.24010762933E+03  0.26320413679E+03  0.47000000000E+01 0. -1.
         -5    1    4    4    0  501  0.12262705208E+02  0.28719256278E+02 -0.27369173809E+02  0.41789128911E+02  0.47000000000E+01 0. -1.
          1    1    1    2  502    0  0.22475086066E+02  0.57451378142E+02  0.92091968671E+03  0.92298367251E+03  0.00000000000E+00 0. -1.
          1    1    1    2  503    0  0.34079108627E+02 -0.70084955833E+02 -0.11346937982E+04  0.11373668284E+04  0.00000000000E+00 0. -1.
<mgrwt>
<rscale>  0 0.69245745E+02</rscale>
<asrwt>0</asrwt>
<pdfrwt beam="1">  1        2 0.17548547E+00 0.61691088E+02</pdfrwt>
<pdfrwt beam="2">  1        2 0.42334220E+00 0.77725541E+02</pdfrwt>
<totfact> 0.12831233E+01</totfact>
</mgrwt>
</event>
<event>
13    1  0.1595792E-008  0.5536725E+02  0.7546771E-02  0.1589553E+00
          2   -1    0    0  502    0  0.00000000000E+00  0.00000000000E+00  0.23448925274E+04  0.23448925274E+04  0.00000000000E+00 0. -1.
          2   -1    0    0  503    0 -0.00000000000E+00 -0.00000000000E+00 -0.27104344619E+04  0.27104344619E+04  0.00000000000E+00 0. -1.
         24    2    1    2    0    0 -0.14327600002E+03 -0.34510717926E+02 -0.10193343684E+04  0.10329279772E+04  0.78604387062E+02 0.  0.
         25    2    1    2    0    0 -0.54232073776E+03 -0.30376816754E+03 -0.18082839214E+03  0.65932678970E+03  0.12500410393E+03 0.  0.
         24    2    1    2    0    0  0.72296549251E+03  0.34653307560E+03 -0.44039922785E+03  0.91731511422E+03  0.68929406255E+02 0.  0.
        -11    1    5    5    0    0  0.63622322615E+03  0.32571842915E+03 -0.37897756052E+03  0.80900956728E+03  0.00000000000E+00 0.  1.
         12    1    5    5    0    0  0.86742266358E+02  0.20814646451E+02 -0.61421667329E+02  0.10830554694E+03  0.00000000000E+00 0. -1.
        -13    1    3    3    0    0 -0.85089595328E+02  0.17728618516E+02 -0.45813600236E+03  0.46630798814E+03  0.00000000000E+00 0.  1.
         14    1    3    3    0    0 -0.58186404694E+02 -0.52239336442E+02 -0.56119836603E+03  0.56661998905E+03  0.00000000000E+00 0. -1.
          5    1    4    4  501    0 -0.34008276897E+03 -0.23907908922E+03 -0.76557428833E+02  0.42272713487E+03  0.47000000000E+01 0. -1.
         -5    1    4    4    0  501 -0.20223796879E+03 -0.64689078325E+02 -0.10427096331E+03  0.23659965483E+03  0.47000000000E+01 0. -1.
          1    1    1    2  502    0 -0.54261105848E+02 -0.11028670263E+02  0.18598513121E+04  0.18606753618E+04  0.00000000000E+00 0. -1.
          1    1    1    2  503    0  0.16892351122E+02  0.27744801346E+01 -0.58483125822E+03  0.58508174631E+03  0.00000000000E+00 0. -1.
<mgrwt>
<rscale>  0 0.30786592E+02</rscale>
<asrwt>0</asrwt>
<pdfrwt beam="1">  1        2 0.34483714E+00 0.55367246E+02</pdfrwt>
<pdfrwt beam="2">  1        2 0.39859330E+00 0.17118682E+02</pdfrwt>
<totfact> 0.56675301E+00</totfact>
</mgrwt>
</event>
<event>
13    1  0.1595792E-008  0.1685235E+03  0.7546771E-02  0.1253058E+00
          2   -1    0    0  503    0  0.00000000000E+00  0.00000000000E+00  0.16455377314E+04  0.16455377314E+04  0.00000000000E+00 0. -1.
          2   -1    0    0  502    0 -0.00000000000E+00 -0.00000000000E+00 -0.17855133323E+04  0.17855133323E+04  0.00000000000E+00 0. -1.
         24    2    1    2    0    0  0.95797846994E+02  0.46266881193E+02 -0.10338249707E+03  0.16695323229E+03  0.76600191182E+02 0.  0.
         25    2    1    2    0    0 -0.82240515889E+02 -0.11792838595E+03  0.42704185648E+02  0.19524093751E+03  0.12499907816E+03 0.  0.
         24    2    1    2    0    0 -0.13804848971E+03  0.52545078987E+02  0.26925633682E+03  0.31779590964E+03  0.81712266105E+02 0.  0.
        -11    1    5    5    0    0 -0.45730173427E+02  0.11977479202E+02  0.16943553904E+03  0.17590653956E+03  0.00000000000E+00 0.  1.
         12    1    5    5    0    0 -0.92318316285E+02  0.40567599786E+02  0.99820797776E+02  0.14188937008E+03  0.00000000000E+00 0. -1.
        -13    1    3    3    0    0  0.64398744445E+02 -0.99794781347E+00 -0.86318741254E+02  0.10769920741E+03  0.00000000000E+00 0.  1.
         14    1    3    3    0    0  0.31399102550E+02  0.47264829006E+02 -0.17063755813E+02  0.59254024879E+02  0.00000000000E+00 0. -1.
          5    1    4    4  501    0 -0.10563277673E+03 -0.52458094588E+02  0.42809845983E+02  0.12555838530E+03  0.47000000000E+01 0.  1.
         -5    1    4    4    0  501  0.23392260838E+02 -0.65470291359E+02 -0.10566033553E+00  0.69682552206E+02  0.47000000000E+01 0.  1.
          1    1    1    2  502    0  0.11589225781E+03  0.95967680139E+02 -0.15449038201E+04  0.15522141039E+04  0.00000000000E+00 0. -1.
          1    1    1    2  503    0  0.85989007984E+01 -0.76851254372E+02  0.11963501938E+04  0.11988468804E+04  0.00000000000E+00 0. -1.
<mgrwt>
<rscale>  0 0.11415807E+03</rscale>
<asrwt>0</asrwt>
<pdfrwt beam="1">  1        2 0.24199084E+00 0.77330824E+02</pdfrwt>
<pdfrwt beam="2">  1        2 0.26257549E+00 0.16852355E+03</pdfrwt>
<totfact> 0.23990835E+01</totfact>
</mgrwt>
</event>
<event>
13    1  0.1595792E-008  0.3883125E+02  0.7546771E-02  0.1618244E+00
          2   -1    0    0  503    0  0.00000000000E+00  0.00000000000E+00  0.85237808694E+03  0.85237808694E+03  0.00000000000E+00 0. -1.
          2   -1    0    0  502    0 -0.00000000000E+00 -0.00000000000E+00 -0.68704106867E+03  0.68704106867E+03  0.00000000000E+00 0. -1.
         24    2    1    2    0    0  0.22781798891E+02  0.44803080201E+02 -0.35000587784E+03  0.36272825059E+03  0.80878568843E+02 0.  0.
         25    2    1    2    0    0 -0.14010747737E+02 -0.27083060515E+02  0.29145384629E+03  0.31859198454E+03  0.12500285947E+03 0.  0.
         24    2    1    2    0    0 -0.24881197805E+02 -0.27964803660E+02  0.21801770762E+03  0.23500065577E+03  0.79325173361E+02 0.  0.
        -11    1    3    3    0    0 -0.10257109478E+02 -0.44251816258E+01 -0.42913198707E+01  0.11966868993E+02  0.00000000000E+00 0.  1.
         12    1    3    3    0    0  0.33038908369E+02  0.49228261827E+02 -0.34571455797E+03  0.35076138160E+03  0.00000000000E+00 0. -1.
        -11    1    5    5    0    0  0.20785414062E+02 -0.27488024562E+01  0.16048931231E+02  0.26403741143E+02  0.00000000000E+00 0.  1.
         12    1    5    5    0    0 -0.45666611867E+02 -0.25216001204E+02  0.20196877639E+03  0.20859691463E+03  0.00000000000E+00 0. -1.
          5    1    4    4  501    0 -0.16366456258E+02 -0.74570079052E+02  0.13686662967E+03  0.15679005676E+03  0.47000000000E+01 0.  1.
         -5    1    4    4    0  501  0.23557085217E+01  0.47487018537E+02  0.15458721662E+03  0.16180192778E+03  0.47000000000E+01 0.  1.
          1    1    1    2  502    0  0.27870719572E+02  0.27104525536E+02 -0.30705051819E+03  0.30950194351E+03  0.00000000000E+00 0. -1.
          1    1    1    2  503    0 -0.11760572922E+02 -0.16859741562E+02  0.31292186039E+03  0.31359632120E+03  0.00000000000E+00 0. -1.
<mgrwt>
<rscale>  0 0.28252917E+02</rscale>
<asrwt>0</asrwt>
<pdfrwt beam="1">  1        2 0.12534972E+00 0.20556312E+02</pdfrwt>
<pdfrwt beam="2">  1        2 0.10103545E+00 0.38831252E+02</pdfrwt>
<totfact> 0.28483935E+02</totfact>
</mgrwt>
</event>
<event>
13    1  0.1595792E-008  0.8379145E+02  0.7546771E-02  0.1461801E+00
          2   -1    0    0  503    0  0.00000000000E+00  0.00000000000E+00  0.95252485185E+03  0.95252485185E+03  0.00000000000E+00 0. -1.
          2   -1    0    0  502    0 -0.00000000000E+00 -0.00000000000E+00 -0.35829091914E+03  0.35829091914E+03  0.00000000000E+00 0. -1.
         24    2    1    2    0    0  0.40617860337E+02  0.73201527265E+02  0.72535786117E+02  0.13651152618E+03  0.79785226329E+02 0.  0.
         25    2    1    2    0    0  0.93542584521E+02 -0.34717363324E+02  0.78914558147E+02  0.17834100651E+03  0.12498998632E+03 0.  0.
         24    2    1    2    0    0 -0.38300715680E+02  0.14170623481E+02  0.15835354826E+03  0.18186422470E+03  0.79567572459E+02 0.  0.
        -11    1    5    5    0    0  0.85837278938E+01  0.23649236999E+02  0.11362337791E+03  0.11637542181E+03  0.00000000000E+00 0.  1.
         12    1    5    5    0    0 -0.46884443574E+02 -0.94786135185E+01  0.44730170354E+02  0.65488802885E+02  0.00000000000E+00 0. -1.
        -11    1    3    3    0    0  0.64199507155E+02  0.50828224796E+02  0.60653548729E+02  0.10190161004E+03  0.00000000000E+00 0.  1.
         12    1    3    3    0    0 -0.23581646819E+02  0.22373302469E+02  0.11882237388E+02  0.34609916142E+02  0.00000000000E+00 0. -1.
          5    1    4    4  501    0 -0.17832509055E+02  0.23136986147E+02  0.33728364557E+02  0.44866592058E+02  0.47000000000E+01 0.  1.
         -5    1    4    4    0  501  0.11137509358E+03 -0.57854349471E+02  0.45186193590E+02  0.13347441445E+03  0.47000000000E+01 0.  1.
          1    1    1    2  502    0 -0.23468437451E+02 -0.12188735718E+02 -0.26103205734E+03  0.26236819128E+03  0.00000000000E+00 0. -1.
          1    1    1    2  503    0 -0.72391291726E+02 -0.40466051702E+02  0.54546209753E+03  0.55173082232E+03  0.00000000000E+00 0. -1.
<mgrwt>
<rscale>  0 0.47072886E+02</rscale>
<asrwt>0</asrwt>
<pdfrwt beam="1">  1        2 0.14007718E+00 0.83791446E+02</pdfrwt>
<pdfrwt beam="2">  1        2 0.52689841E-01 0.26444902E+02</pdfrwt>
<totfact> 0.45960301E+02</totfact>
</mgrwt>
</event>
<event>
13    1  0.1595792E-008  0.1001330E+03  0.7546771E-02  0.1474162E+00
          2   -1    0    0  502    0  0.00000000000E+00  0.00000000000E+00  0.21295037175E+04  0.21295037175E+04  0.00000000000E+00 0. -1.
          2   -1    0    0  503    0 -0.00000000000E+00 -0.00000000000E+00 -0.21700973196E+04  0.21700973196E+04  0.00000000000E+00 0. -1.
         24    2    1    2    0    0  0.12698590094E+03 -0.48047307783E+03 -0.64477323425E+03  0.81764442083E+03  0.76354945823E+02 0.  0.
         25    2    1    2    0    0 -0.10397198595E+03  0.20799318810E+03  0.18996415159E+03  0.32524208666E+03  0.12499878353E+03 0.  0.
         24    2    1    2    0    0  0.14498769751E+02  0.16818336012E+03  0.20918124207E+03  0.28027445527E+03  0.79379602550E+02 0.  0.
        -11    1    5    5    0    0 -0.28337162399E+02  0.31154591057E+02  0.59228871920E+02  0.72675047889E+02  0.00000000000E+00 0.  1.
         12    1    5    5    0    0  0.42835932150E+02  0.13702876906E+03  0.14995237015E+03  0.20759940739E+03  0.00000000000E+00 0. -1.
        -13    1    3    3    0    0 -0.68289691842E+01 -0.13317069046E+02 -0.91345575219E+01  0.17533376435E+02  0.00000000000E+00 0.  1.
         14    1    3    3    0    0  0.13381487013E+03 -0.46715600879E+03 -0.63563867672E+03  0.80011104439E+03  0.00000000000E+00 0. -1.
          5    1    4    4  501    0 -0.85038473068E+02  0.41226654020E+02  0.85253877019E+02  0.12736362295E+03  0.47000000000E+01 0.  1.
         -5    1    4    4    0  501 -0.18933512885E+02  0.16676653408E+03  0.10471027457E+03  0.19787846371E+03  0.47000000000E+01 0.  1.
          1    1    1    2  502    0 -0.19386186250E+02  0.58478029628E+01  0.15387948997E+04  0.15389281218E+04  0.00000000000E+00 0. -1.
          1    1    1    2  503    0 -0.18126498494E+02  0.98448726655E+02 -0.13337606611E+04  0.13375119524E+04  0.00000000000E+00 0. -1.
<mgrwt>
<rscale>  0 0.45028772E+02</rscale>
<asrwt>0</asrwt>
<pdfrwt beam="1">  1        2 0.31316231E+00 0.20248976E+02</pdfrwt>
<pdfrwt beam="2">  1        2 0.31913196E+00 0.10013298E+03</pdfrwt>
<totfact> 0.11395736E+01</totfact>
</mgrwt>
</event>
<event>
13    1  0.1595792E-008  0.2338809E+03  0.7546771E-02  0.1347080E+00
          2   -1    0    0  502    0  0.00000000000E+00  0.00000000000E+00  0.11751924686E+04  0.11751924686E+04  0.00000000000E+00 0. -1.
          2   -1    0    0  503    0 -0.00000000000E+00 -0.00000000000E+00 -0.14805733647E+04  0.14805733647E+04  0.00000000000E+00 0. -1.
         24    2    1    2    0    0  0.56034500435E+02 -0.17946324278E+03 -0.34057676263E+03  0.39754640067E+03  0.81876056875E+02 0.  0.
         25    2    1    2    0    0 -0.47093919227E+03 -0.33024306154E+02 -0.62124676692E+03  0.79022113656E+03  0.12501028616E+03 0.  0.
         24    2    1    2    0    0  0.26065887719E+03  0.16889615173E+02  0.70974069918E+02  0.28269627444E+03  0.81557069711E+02 0.  0.
        -11    1    3    3    0    0  0.42901657209E+02 -0.24226109929E+02 -0.81164914855E+02  0.94948407027E+02  0.00000000000E+00 0.  1.
         12    1    3    3    0    0  0.13132843226E+02 -0.15523713285E+03 -0.25941184778E+03  0.30259799364E+03  0.00000000000E+00 0. -1.
        -13    1    5    5    0    0  0.10907042437E+02  0.98895276212E+01  0.24466384846E+02  0.28554689960E+02  0.00000000000E+00 0.  1.
         14    1    5    5    0    0  0.24975183476E+03  0.70000875514E+01  0.46507685072E+02  0.25414158448E+03  0.00000000000E+00 0. -1.
          5    1    4    4  501    0 -0.41510592166E+03 -0.68837099538E+02 -0.51751512574E+03  0.66700484844E+03  0.47000000000E+01 0.  1.
         -5    1    4    4    0  501 -0.55833270610E+02  0.35812793384E+02 -0.10373164118E+03  0.12321628813E+03  0.47000000000E+01 0.  1.
          1    1    1    2  502    0  0.15977654738E+03  0.17286418829E+03  0.86924945566E+03  0.90055826510E+03  0.00000000000E+00 0. -1.
          1    1    1    2  503    0 -0.55307327394E+01  0.22733745476E+02 -0.28378089206E+03  0.28474375654E+03  0.00000000000E+00 0. -1.
<mgrwt>
<rscale>  0 0.73973478E+02</rscale>
<asrwt>0</asrwt>
<pdfrwt beam="1">  1        2 0.17282242E+00 0.23388095E+03</pdfrwt>
<pdfrwt beam="2">  1        2 0.21773138E+00 0.23396841E+02</pdfrwt>
<totfact> 0.64302207E+01</totfact>
</mgrwt>
</event>
<event>
13    1  0.1595792E-008  0.4540851E+03  0.7546771E-02  0.1282534E+00
          2   -1    0    0  503    0  0.00000000000E+00  0.00000000000E+00  0.29423198206E+04  0.29423198206E+04  0.00000000000E+00 0. -1.
          2   -1    0    0  502    0 -0.00000000000E+00 -0.00000000000E+00 -0.23721123959E+04  0.23721123959E+04  0.00000000000E+00 0. -1.
         24    2    1    2    0    0 -0.57644282843E+02  0.13605141525E+02 -0.17127193662E+02  0.10187889884E+03  0.81104907648E+02 0.  0.
         25    2    1    2    0    0 -0.51771799326E+02 -0.30308100308E+02 -0.35713181104E+02  0.14318327304E+03  0.12500847261E+03 0.  0.
         24    2    1    2    0    0 -0.30801965750E+03  0.21278774884E+03  0.42798840090E+03  0.57389531576E+03  0.77633927447E+02 0.  0.
        -11    1    5    5    0    0 -0.27734466440E+03  0.20244922804E+03  0.35419955994E+03  0.49331843780E+03  0.00000000000E+00 0.  1.
         12    1    5    5    0    0 -0.30674993101E+02  0.10338520800E+02  0.73788840950E+02  0.80576877967E+02  0.00000000000E+00 0. -1.
        -13    1    3    3    0    0 -0.28660583139E+02 -0.27642036568E+02  0.14489232713E+02  0.42372739776E+02  0.00000000000E+00 0.  1.
         14    1    3    3    0    0 -0.28983699704E+02  0.41247178094E+02 -0.31616426375E+02  0.59506159059E+02  0.00000000000E+00 0. -1.
          5    1    4    4  501    0 -0.48555031219E+01  0.14743554745E+02 -0.68357399035E+02  0.70255051917E+02  0.47000000000E+01 0. -1.
         -5    1    4    4    0  501 -0.46916296204E+02 -0.45051655053E+02  0.32644217931E+02  0.72928221127E+02  0.47000000000E+01 0. -1.
          1    1    1    2  502    0 -0.20277110846E+02  0.73242803317E+01 -0.21253185896E+04  0.21254279366E+04  0.00000000000E+00 0. -1.
          1    1    1    2  503    0  0.43771285052E+03 -0.20340907039E+03  0.23203779881E+04  0.23700467922E+04  0.00000000000E+00 0. -1.
<mgrwt>
<rscale>  0 0.98943353E+02</rscale>
<asrwt>0</asrwt>
<pdfrwt beam="1">  1        2 0.43269409E+00 0.45408509E+03</pdfrwt>
<pdfrwt beam="2">  1        2 0.34884006E+00 0.21559367E+02</pdfrwt>
<totfact> 0.29204755E+00</totfact>
</mgrwt>
</event>
<event>
13    1  0.1595792E-008  0.6164568E+02  0.7546771E-02  0.1455371E+00
          2   -1    0    0  502    0  0.00000000000E+00  0.00000000000E+00  0.17681605696E+04  0.17681605696E+04  0.00000000000E+00 0. -1.
          2   -1    0    0  503    0 -0.00000000000E+00 -0.00000000000E+00 -0.19866875988E+04  0.19866875988E+04  0.00000000000E+00 0. -1.
         24    2    1    2    0    0 -0.27295406913E+03 -0.16630116584E+03 -0.81020051371E+02  0.34026975749E+03  0.84019387787E+02 0.  0.
         25    2    1    2    0    0  0.15713557586E+03  0.14671282995E+03  0.11682495614E+03  0.27475285392E+03  0.12499926674E+03 0.  0.
         24    2    1    2    0    0  0.39499195007E+02 -0.19255105075E+02  0.52750096249E+03  0.53439527200E+03  0.73417271993E+02 0.  0.
        -11    1    5    5    0    0  0.33431775313E+01 -0.37412331514E+02  0.14597653528E+03  0.15073157678E+03  0.00000000000E+00 0.  1.
         12    1    5    5    0    0  0.36156017476E+02  0.18157226439E+02  0.38152442722E+03  0.38366369523E+03  0.00000000000E+00 0. -1.
        -11    1    3    3    0    0 -0.43706008934E+02  0.96265099579E+00  0.43319785677E+01  0.43930717638E+02  0.00000000000E+00 0.  1.
         12    1    3    3    0    0 -0.22924806020E+03 -0.16726381683E+03 -0.85352029939E+02  0.29633903985E+03  0.00000000000E+00 0. -1.
          5    1    4    4  501    0  0.30662512667E+02 -0.53675335932E+01  0.61854430742E+02  0.69405048104E+02  0.47000000000E+01 0.  1.
         -5    1    4    4    0  501  0.12647306320E+03  0.15208036355E+03  0.54970525400E+02  0.20534780582E+03  0.47000000000E+01 0.  1.
          1    1    1    2  502    0  0.36721506777E+02 -0.83881142054E+01  0.91084855805E+03  0.91162707574E+03  0.00000000000E+00 0. -1.
          1    1    1    2  503    0  0.39597791486E+02  0.47231555166E+02 -0.16926814545E+04  0.16938032092E+04  0.00000000000E+00 0. -1.
<mgrwt>
<rscale>  0 0.48187444E+02</rscale>
<asrwt>0</asrwt>
<pdfrwt beam="1">  1        2 0.26002362E+00 0.37667354E+02</pdfrwt>
<pdfrwt beam="2">  1        2 0.29215994E+00 0.61645684E+02</pdfrwt>
<totfact> 0.19855197E+01</totfact>
</mgrwt>
</event>
<event>
13    1  0.1595792E-008  0.1112993E+03  0.7546771E-02  0.1260274E+00
         -3   -1    0    0    0  501 -0.00000000000E+00  0.00000000000E+00  0.31473822676E+03  0.31473822676E+03  0.00000000000E+00 0.  1.
          2   -1    0    0  503    0  0.00000000000E+00 -0.00000000000E+00 -0.34962124013E+04  0.34962124013E+04  0.00000000000E+00 0. -1.
         24    2    1    2    0    0 -0.15786483006E+02  0.90596584585E+02  0.40676674871E+02  0.12872360974E+03  0.80363061431E+02 0.  0.
         25    2    1    2    0    0 -0.17913248557E+03  0.56756032640E+02 -0.24993616488E+03  0.33675056883E+03  0.12499265765E+03 0.  0.
         24    2    1    2    0    0  0.23583729150E+02  0.11126919831E+02 -0.18857317629E+03  0.20668512618E+03  0.80491601675E+02 0.  0.
        -13    1    5    5    0    0 -0.11365663387E+02 -0.14877722822E+02 -0.70463341580E+01  0.20004393659E+02  0.00000000000E+00 0.  1.
         14    1    5    5    0    0  0.34949392537E+02  0.26004642653E+02 -0.18152684213E+03  0.18668073252E+03  0.00000000000E+00 0. -1.
        -13    1    3    3    0    0 -0.45104742435E+02  0.65088996662E+02  0.42395734077E+02  0.89824348283E+02  0.00000000000E+00 0.  1.
         14    1    3    3    0    0  0.29318259429E+02  0.25507587923E+02 -0.17190592061E+01  0.38899261460E+02  0.00000000000E+00 0. -1.
          5    1    4    4  502    0 -0.11377876846E+03  0.84518969009E+02 -0.10898499127E+03  0.17885436141E+03  0.47000000000E+01 0. -1.
         -5    1    4    4    0  502 -0.65353717115E+02 -0.27762936369E+02 -0.14095117361E+03  0.15789620742E+03  0.47000000000E+01 0. -1.
          1    1    1    2  503    0  0.84857890673E+02 -0.88509727619E+02 -0.29423923953E+04  0.29449461525E+04  0.00000000000E+00 0. -1.
         -4    1    1    2    0  501  0.86477348754E+02 -0.69969809438E+02  0.15875088707E+03  0.19384517076E+03  0.00000000000E+00 0.  1.
<mgrwt>
<rscale>  0 0.11015979E+03</rscale>
<asrwt>0</asrwt>
<pdfrwt beam="2">  1        2 0.51414887E+00 0.10903191E+03</pdfrwt>
<pdfrwt beam="1">  1       -3 0.46285034E-01 0.11129933E+03</pdfrwt>
<totfact> 0.42158752E+00</totfact>
</mgrwt>
</event>
<event>
13    1  0.1595792E-008  0.1114842E+03  0.7546771E-02  0.1319256E+00
          2   -1    0    0  502    0  0.00000000000E+00  0.00000000000E+00  0.10642856823E+04  0.10642856823E+04  0.00000000000E+00 0. -1.
          2   -1    0    0  503    0 -0.00000000000E+00 -0.00000000000E+00 -0.82437538592E+03  0.82437538592E+03  0.00000000000E+00 0. -1.
         24    2    1    2    0    0 -0.20570421684E+03  0.62179997989E+01 -0.47230297539E+03  0.52147975714E+03  0.80735049387E+02 0.  0.
         25    2    1    2    0    0  0.33188964425E+03 -0.10730313338E+03  0.15620560583E+03  0.40210670039E+03  0.12499963524E+03 0.  0.
         24    2    1    2    0    0 -0.74297709808E+02 -0.10722477559E+02  0.26330531804E+02  0.11321682666E+03  0.80558250512E+02 0.  0.
        -11    1    3    3    0    0  0.73647900230E+01  0.16809579308E+01 -0.22698925445E+02  0.23922938114E+02  0.00000000000E+00 0.  1.
         12    1    3    3    0    0 -0.21306900686E+03  0.45370418681E+01 -0.44960404994E+03  0.49755681903E+03  0.00000000000E+00 0. -1.
        -13    1    5    5    0    0 -0.82996612943E+01  0.17459817500E+02 -0.19985144944E+02  0.27805316455E+02  0.00000000000E+00 0.  1.
         14    1    5    5    0    0 -0.65998048514E+02 -0.28182295059E+02  0.46315676748E+02  0.85411510203E+02  0.00000000000E+00 0. -1.
          5    1    4    4  501    0  0.37462314123E+02 -0.59967060257E+02  0.44230536433E+02  0.83533847322E+02  0.47000000000E+01 0. -1.
         -5    1    4    4    0  501  0.29442733013E+03 -0.47336073121E+02  0.11197506940E+03  0.31857285307E+03  0.47000000000E+01 0. -1.
          1    1    1    2  502    0 -0.91388705374E+02  0.63215175914E+02  0.67999637783E+03  0.68901605772E+03  0.00000000000E+00 0. -1.
          1    1    1    2  503    0  0.39500987776E+02  0.48592435224E+02 -0.15031924371E+03  0.16284172630E+03  0.00000000000E+00 0. -1.
<mgrwt>
<rscale>  0 0.83554739E+02</rscale>
<asrwt>0</asrwt>
<pdfrwt beam="1">  1        2 0.15651260E+00 0.11148415E+03</pdfrwt>
<pdfrwt beam="2">  1        2 0.12123167E+00 0.62622303E+02</pdfrwt>
<totfact> 0.15964647E+02</totfact>
</mgrwt>
</event>
<event>
13    1  0.1595792E-008  0.2006419E+03  0.7546771E-02  0.1200884E+00
          2   -1    0    0  503    0  0.00000000000E+00  0.00000000000E+00  0.25437784935E+04  0.25437784935E+04  0.00000000000E+00 0. -1.
          2   -1    0    0  502    0 -0.00000000000E+00 -0.00000000000E+00 -0.10260759390E+04  0.10260759390E+04  0.00000000000E+00 0. -1.
         24    2    1    2    0    0  0.49378264651E+03  0.30728805045E+03 -0.10505498300E+02  0.58730104172E+03  0.81024071508E+02 0.  0.
         25    2    1    2    0    0 -0.34811194324E+03 -0.12438712332E+03  0.26768548540E+03  0.47321952854E+03  0.12500848623E+03 0.  0.
         24    2    1    2    0    0  0.14638993962E+02 -0.18027217007E+03  0.92551447651E+03  0.94586810568E+03  0.73328518735E+02 0.  0.
        -13    1    3    3    0    0  0.22648301688E+03  0.14566977144E+03 -0.45080611910E+02  0.27303205090E+03  0.00000000000E+00 0.  1.
         14    1    3    3    0    0  0.26729962963E+03  0.16161827902E+03  0.34575113610E+02  0.31426899082E+03  0.00000000000E+00 0. -1.
        -13    1    5    5    0    0 -0.28154696552E+02 -0.60391171076E+02  0.26918569672E+03  0.27730979031E+03  0.00000000000E+00 0.  1.
         14    1    5    5    0    0  0.42793690514E+02 -0.11988099899E+03  0.65632877980E+03  0.66855831537E+03  0.00000000000E+00 0. -1.
          5    1    4    4  501    0 -0.24121429817E+02 -0.50779347373E+02  0.24751645017E+02  0.61604540637E+02  0.47000000000E+01 0. -1.
         -5    1    4    4    0  501 -0.32399051342E+03 -0.73607775946E+02  0.24293384038E+03  0.41161498790E+03  0.47000000000E+01 0. -1.
          1    1    1    2  502    0 -0.16425563681E+03 -0.11420058057E+03 -0.59451013247E+03  0.62726707584E+03  0.00000000000E+00 0. -1.
          1    1    1    2  503    0  0.39459395740E+01  0.11157182351E+03  0.92951822337E+03  0.93619868073E+03  0.00000000000E+00 0. -1.
<mgrwt>
<rscale>  0 0.14966623E+03</rscale>
<asrwt>0</asrwt>
<pdfrwt beam="1">  1        2 0.37408507E+00 0.11164158E+03</pdfrwt>
<pdfrwt beam="2">  1        2 0.15089352E+00 0.20064193E+03</pdfrwt>
<totfact> 0.20933164E+01</totfact>
</mgrwt>
</event>
<event>
13    1  0.1595792E-008  0.9399780E+02  0.7546771E-02  0.1313558E+00
          2   -1    0    0  502    0  0.00000000000E+00  0.00000000000E+00  0.15203864538E+04  0.15203864538E+04  0.00000000000E+00 0. -1.
          4   -1    0    0  503    0 -0.00000000000E+00 -0.00000000000E+00 -0.59170385571E+03  0.59170385571E+03  0.00000000000E+00 0. -1.
         24    2    1    2    0    0  0.83410624616E+02 -0.37373031254E+02  0.64711709408E+02  0.12772449926E+03  0.61415524201E+02 0.  0.
         25    2    1    2    0    0 -0.11614203568E+03  0.32551188008E+02  0.10143086540E+03  0.20115297547E+03  0.12500298713E+03 0.  0.
         24    2    1    2    0    0  0.69492732377E+01 -0.37368661000E+02  0.23578640126E+03  0.25165389692E+03  0.79307928947E+02 0.  0.
        -13    1    3    3    0    0 -0.84392656831E+01 -0.12282457913E+02  0.88566803200E+01  0.17335534717E+02  0.00000000000E+00 0.  1.
         14    1    3    3    0    0  0.91849890299E+02 -0.25090573342E+02  0.55855029088E+02  0.11038896454E+03  0.00000000000E+00 0. -1.
        -13    1    5    5    0    0  0.70776615977E+00 -0.35495868797E+02  0.32099163114E+02  0.47862447777E+02  0.00000000000E+00 0.  1.
         14    1    5    5    0    0  0.62415070779E+01 -0.18727922024E+01  0.20368723815E+03  0.20379144915E+03  0.00000000000E+00 0. -1.
          5    1    4    4  501    0 -0.11123999648E+03  0.88448409129E+01  0.12458940166E+03  0.16732356987E+03  0.47000000000E+01 0.  1.
         -5    1    4    4    0  501 -0.49020391942E+01  0.23706347095E+02 -0.23158536266E+02  0.33829405594E+02  0.47000000000E+01 0.  1.
          1    1    1    2  502    0  0.87927969859E+02 -0.52314727936E+01  0.10242136043E+04  0.10279942624E+04  0.00000000000E+00 0. -1.
          3    1    1    2  503    0 -0.62145832037E+02  0.47421977039E+02 -0.49745998233E+03  0.50356467545E+03  0.00000000000E+00 0. -1.
<mgrwt>
<rscale>  0 0.85720757E+02</rscale>
<asrwt>0</asrwt>
<pdfrwt beam="1">  1        2 0.22358624E+00 0.93997801E+02</pdfrwt>
<pdfrwt beam="2">  1        4 0.87015273E-01 0.78172555E+02</pdfrwt>
<totfact> 0.93343322E+00</totfact>
</mgrwt>
</event>
<event>
13    1  0.1595792E-008  0.7808807E+02  0.7546771E-02  0.1398470E+00
          2   -1    0    0  503    0  0.00000000000E+00  0.00000000000E+00  0.47002635236E+03  0.47002635236E+03  0.00000000000E+00 0. -1.
          2   -1    0    0  502    0 -0.00000000000E+00 -0.00000000000E+00 -0.20370758889E+04  0.20370758889E+04  0.00000000000E+00 0. -1.
         24    2    1    2    0    0 -0.20532951077E+02  0.13530118114E+02 -0.15256004598E+03  0.17454102887E+03  0.81150089052E+02 0.  0.
         25    2    1    2    0    0  0.86734169636E+02  0.10072591028E+03 -0.30239239774E+03  0.35318676346E+03  0.12502480751E+03 0.  0.
         24    2    1    2    0    0 -0.59158735232E+02 -0.76614594288E+02  0.71857824658E+02  0.14536758223E+03  0.81231982528E+02 0.  0.
        -11    1    5    5    0    0  0.14404213365E+02 -0.14691638744E+02 -0.62306671692E+01  0.21497600448E+02  0.00000000000E+00 0.  1.
         12    1    5    5    0    0 -0.73562948598E+02 -0.61922955543E+02  0.78088491828E+02  0.12386998178E+03  0.00000000000E+00 0. -1.
        -13    1    3    3    0    0  0.19626735358E+02 -0.14632797616E+02 -0.98708962041E+02  0.10169949210E+03  0.00000000000E+00 0.  1.
         14    1    3    3    0    0 -0.40159686436E+02  0.28162915730E+02 -0.53851083941E+02  0.72841536767E+02  0.00000000000E+00 0. -1.
          5    1    4    4  501    0  0.92991703918E+02  0.10980126967E+03 -0.30797807958E+03  0.33996523840E+03  0.47000000000E+01 0. -1.
         -5    1    4    4    0  501 -0.62575342820E+01 -0.90753593877E+01  0.55856818442E+01  0.13221525062E+02  0.47000000000E+01 0. -1.
          1    1    1    2  502    0  0.17451591544E+02 -0.76422674209E+02 -0.15063383476E+04  0.15083766773E+04  0.00000000000E+00 0. -1.
          1    1    1    2  503    0 -0.24494074870E+02  0.38781240098E+02  0.32238343008E+03  0.32563018944E+03  0.00000000000E+00 0. -1.
<mgrwt>
<rscale>  0 0.59848174E+02</rscale>
<asrwt>0</asrwt>
<pdfrwt beam="1">  1        2 0.69121523E-01 0.45868772E+02</pdfrwt>
<pdfrwt beam="2">  1        2 0.29956998E+00 0.78088069E+02</pdfrwt>
<totfact> 0.10013678E+02</totfact>
</mgrwt>
</event>
<event>
13    1  0.1595792E-008  0.5615354E+02  0.7546771E-02  0.1418778E+00
          2   -1    0    0  503    0  0.00000000000E+00  0.00000000000E+00  0.36362132425E+04  0.36362132425E+04  0.00000000000E+00 0. -1.
          2   -1    0    0  502    0 -0.00000000000E+00 -0.00000000000E+00 -0.15885390560E+04  0.15885390560E+04  0.00000000000E+00 0. -1.
         24    2    1    2    0    0  0.11604948511E+03  0.34220877284E+02  0.30414141517E+02  0.14833580395E+03  0.80249232359E+02 0.  0.
         25    2    1    2    0    0 -0.59419363223E+03 -0.15104468453E+03 -0.10378796550E+03  0.63427045989E+03  0.12508599122E+03 0.  0.
         24    2    1    2    0    0  0.49147417432E+03  0.13515206111E+03  0.25252127327E+04  0.25774107248E+04  0.80831646920E+02 0.  0.
        -11    1    3    3    0    0  0.12493798039E+03  0.39083519562E+02  0.17732624673E+02  0.13210399852E+03  0.00000000000E+00 0.  1.
         12    1    3    3    0    0 -0.88884952836E+01 -0.48626422782E+01  0.12681516844E+02  0.16231805439E+02  0.00000000000E+00 0. -1.
        -13    1    5    5    0    0  0.45640082698E+03  0.13503957844E+03  0.24241939649E+04  0.24704764281E+04  0.00000000000E+00 0.  1.
         14    1    5    5    0    0  0.35073347338E+02  0.11248266817E+00  0.10101876786E+03  0.10693429667E+03  0.00000000000E+00 0. -1.
          5    1    4    4  501    0 -0.42662245352E+01 -0.13917046141E+02  0.96215939668E+01  0.18070692171E+02  0.47000000000E+01 0. -1.
         -5    1    4    4    0  501 -0.58992740769E+03 -0.13712763839E+03 -0.11340955946E+03  0.61619976771E+03  0.47000000000E+01 0. -1.
          1    1    1    2  502    0 -0.47670389497E+02  0.26251182214E+02 -0.11327117479E+04  0.11340182954E+04  0.00000000000E+00 0. -1.
          1    1    1    2  503    0  0.34340362295E+02 -0.44579436081E+02  0.72854702562E+03  0.73071701441E+03  0.00000000000E+00 0. -1.
<mgrwt>
<rscale>  0 0.55280228E+02</rscale>
<asrwt>0</asrwt>
<pdfrwt beam="1">  1        2 0.53473724E+00 0.56153540E+02</pdfrwt>
<pdfrwt beam="2">  1        2 0.23360868E+00 0.54420498E+02</pdfrwt>
<totfact> 0.33490647E+00</totfact>
</mgrwt>
</event>
<event>
13    1  0.1595792E-008  0.9307506E+02  0.7546771E-02  0.1333935E+00
         -1   -1    0    0    0  501 -0.00000000000E+00  0.00000000000E+00  0.38309136460E+03  0.38309136460E+03  0.00000000000E+00 0.  1.
          2   -1    0    0  503    0  0.00000000000E+00 -0.00000000000E+00 -0.12168407837E+04  0.12168407837E+04  0.00000000000E+00 0. -1.
         24    2    1    2    0    0  0.74478825072E+02  0.53104495949E+02  0.13036494850E+03  0.17904315826E+03  0.81818395532E+02 0.  0.
         25    2    1    2    0    0  0.10710668594E+03  0.46862615647E+02 -0.23741751574E+03  0.29267808605E+03  0.12500175341E+03 0.  0.
         24    2    1    2    0    0 -0.52450421861E+02 -0.98376551401E+01 -0.35048936210E+03  0.36336484466E+03  0.79645408996E+02 0.  0.
        -11    1    3    3    0    0 -0.98830430960E+01  0.33207253071E+02  0.25644510756E+02  0.43104954811E+02  0.00000000000E+00 0.  1.
         12    1    3    3    0    0  0.84361868168E+02  0.19897242878E+02  0.10472043774E+03  0.13593820345E+03  0.00000000000E+00 0. -1.
        -11    1    5    5    0    0 -0.72011795173E+02 -0.11863478260E+02 -0.23060849832E+03  0.24188162448E+03  0.00000000000E+00 0.  1.
         12    1    5    5    0    0  0.19561373312E+02  0.20258231194E+01 -0.11988086378E+03  0.12148322018E+03  0.00000000000E+00 0. -1.
          5    1    4    4  502    0  0.92424226821E+01 -0.32358342219E+02 -0.15196690756E+02  0.37222494518E+02  0.47000000000E+01 0.  1.
         -5    1    4    4    0  502  0.97864263257E+02  0.79220957866E+02 -0.22222082499E+03  0.25545559154E+03  0.47000000000E+01 0.  1.
          1    1    1    2  503    0 -0.56939277630E+02 -0.33131102398E+02 -0.55759255164E+03  0.56147057352E+03  0.00000000000E+00 0. -1.
         -2    1    1    2    0  501 -0.72195811521E+02 -0.56998354057E+02  0.18138506187E+03  0.20337548583E+03  0.00000000000E+00 0.  1.
<mgrwt>
<rscale>  0 0.78303805E+02</rscale>
<asrwt>0</asrwt>
<pdfrwt beam="2">  1        2 0.17894718E+00 0.65876789E+02</pdfrwt>
<pdfrwt beam="1">  1       -1 0.56336965E-01 0.93075057E+02</pdfrwt>
<totfact> 0.87794591E+01</totfact>
</mgrwt>
</event>
<event>
13    1  0.1595792E-008  0.4496071E+02  0.7546771E-02  0.1545050E+00
          2   -1    0    0  503    0  0.00000000000E+00  0.00000000000E+00  0.15431782535E+04  0.15431782535E+04  0.00000000000E+00 0. -1.
          2   -1    0    0  502    0 -0.00000000000E+00 -0.00000000000E+00 -0.95240408730E+03  0.95240408730E+03  0.00000000000E+00 0. -1.
         24    2    1    2    0    0 -0.43684625450E+02 -0.39093742681E+02 -0.23863469778E+03  0.25760093487E+03  0.77298482813E+02 0.  0.
         25    2    1    2    0    0  0.67140022470E+03  0.11490075307E+03  0.16160085344E+03  0.71114084738E+03  0.12500409674E+03 0.  0.
         24    2    1    2    0    0 -0.70012175413E+03 -0.82113948894E+02  0.43063247242E+03  0.82938183446E+03  0.74274691595E+02 0.  0.
        -11    1    5    5    0    0 -0.46491945672E+03 -0.44853625346E+02  0.32406311407E+03  0.56848821522E+03  0.00000000000E+00 0.  1.
         12    1    5    5    0    0 -0.23520229742E+03 -0.37260323548E+02  0.10656935835E+03  0.26089361924E+03  0.00000000000E+00 0. -1.
        -11    1    3    3    0    0 -0.85818009610E+01  0.23547781089E+02 -0.68076080461E+02  0.72543077084E+02  0.00000000000E+00 0.  1.
         12    1    3    3    0    0 -0.35102824489E+02 -0.62641523770E+02 -0.17055861732E+03  0.18505785779E+03  0.00000000000E+00 0. -1.
          5    1    4    4  501    0  0.49058240999E+03  0.51792990374E+02  0.68233336424E+02  0.49802760269E+03  0.47000000000E+01 0.  1.
         -5    1    4    4    0  501  0.18081781471E+03  0.63107762695E+02  0.93367517017E+02  0.21311324469E+03  0.47000000000E+01 0.  1.
          1    1    1    2  502    0  0.27873912412E+02  0.42268453724E+00 -0.22821202376E+03  0.22990837620E+03  0.00000000000E+00 0. -1.
          1    1    1    2  503    0  0.44532242474E+02  0.58842539679E+01  0.46538756191E+03  0.46755034793E+03  0.00000000000E+00 0. -1.
<mgrwt>
<rscale>  0 0.35403037E+02</rscale>
<asrwt>0</asrwt>
<pdfrwt beam="1">  1        2 0.22693798E+00 0.44960712E+02</pdfrwt>
<pdfrwt beam="2">  1        2 0.14005942E+00 0.27877117E+02</pdfrwt>
<totfact> 0.84274275E+01</totfact>
</mgrwt>
</event>
<event>
13    1  0.1595792E-008  0.7877289E+02  0.7546771E-02  0.1348498E+00
          2   -1    0    0  503    0  0.00000000000E+00  0.00000000000E+00  0.81112476639E+03  0.81112476639E+03  0.00000000000E+00 0. -1.
          2   -1    0    0  502    0 -0.00000000000E+00 -0.00000000000E+00 -0.61944044578E+03  0.61944044578E+03  0.00000000000E+00 0. -1.
         24    2    1    2    0    0 -0.19390454352E+02 -0.10554504987E+03  0.10600682959E+03  0.17044473680E+03  0.79361282206E+02 0.  0.
         25    2    1    2    0    0  0.24419581868E+03  0.31593807067E+02  0.88923791254E+02  0.29010746938E+03  0.12500054652E+03 0.  0.
         24    2    1    2    0    0 -0.15388437770E+03  0.39884255286E+02  0.27563607757E+03  0.32778766621E+03  0.78729609040E+02 0.  0.
        -11    1    5    5    0    0 -0.12380725279E+03  0.56167962372E+02  0.25160777400E+03  0.28598871967E+03  0.00000000000E+00 0.  1.
         12    1    5    5    0    0 -0.30077124908E+02 -0.16283707087E+02  0.24028303569E+02  0.41798946537E+02  0.00000000000E+00 0. -1.
        -13    1    3    3    0    0 -0.14061014478E+02  0.88158273711E+01  0.39158250638E+01  0.17051821789E+02  0.00000000000E+00 0.  1.
         14    1    3    3    0    0 -0.53294398743E+01 -0.11436087724E+03  0.10209100452E+03  0.15339291502E+03  0.00000000000E+00 0. -1.
          5    1    4    4  501    0  0.13850343446E+03  0.25228615898E+02  0.11397825191E+03  0.18119827904E+03  0.47000000000E+01 0. -1.
         -5    1    4    4    0  501  0.10569238422E+03  0.63651911681E+01 -0.25054460657E+02  0.10890919034E+03  0.47000000000E+01 0. -1.
          1    1    1    2  502    0 -0.17379110602E+02  0.76998384320E+02 -0.45051638399E+03  0.45737927032E+03  0.00000000000E+00 0. -1.
          1    1    1    2  503    0 -0.53541876027E+02 -0.42931396804E+02  0.17163400619E+03  0.18484606948E+03  0.00000000000E+00 0. -1.
<mgrwt>
<rscale>  0 0.73525816E+02</rscale>
<asrwt>0</asrwt>
<pdfrwt beam="1">  1        2 0.11928305E+00 0.68628255E+02</pdfrwt>
<pdfrwt beam="2">  1        2 0.91094184E-01 0.78772886E+02</pdfrwt>
<totfact> 0.31796151E+02</totfact>
</mgrwt>
</event>
<event>
13    1  0.1595792E-008  0.1932028E+03  0.7546771E-02  0.1465989E+00
          2   -1    0    0  502    0  0.00000000000E+00  0.00000000000E+00  0.64328599831E+03  0.64328599831E+03  0.00000000000E+00 0. -1.
          2   -1    0    0  503    0 -0.00000000000E+00 -0.00000000000E+00 -0.11117311654E+04  0.11117311654E+04  0.00000000000E+00 0. -1.
         24    2    1    2    0    0  0.24761260916E+02 -0.24956282280E+01 -0.57088730806E+02  0.10077808766E+03  0.79232263404E+02 0.  0.
         25    2    1    2    0    0 -0.19727781974E+03  0.35499205601E+02 -0.33680087850E+03  0.41139011544E+03  0.12501305357E+03 0.  0.
         24    2    1    2    0    0 -0.28871099552E+02 -0.44017953315E+02 -0.96707162308E+02  0.13755583818E+03  0.82451275133E+02 0.  0.
        -13    1    3    3    0    0  0.42406029258E+02  0.22165091833E+02 -0.17585502773E+02  0.50978549618E+02  0.00000000000E+00 0.  1.
         14    1    3    3    0    0 -0.17644768342E+02 -0.24660720061E+02 -0.39503228033E+02  0.49799538038E+02  0.00000000000E+00 0. -1.
        -13    1    5    5    0    0  0.22986280315E+02  0.44150493990E+01 -0.41522939548E+02  0.47665671637E+02  0.00000000000E+00 0.  1.
         14    1    5    5    0    0 -0.51857379867E+02 -0.48433002714E+02 -0.55184222759E+02  0.89890166538E+02  0.00000000000E+00 0. -1.
          5    1    4    4  501    0 -0.99683737623E+02  0.20086022458E+02 -0.27861781344E+03  0.29663154217E+03  0.47000000000E+01 0. -1.
         -5    1    4    4    0  501 -0.97594082120E+02  0.15413183143E+02 -0.58183065065E+02  0.11475857327E+03  0.47000000000E+01 0. -1.
          1    1    1    2  502    0  0.19238807606E+03  0.17558337388E+02  0.54711032318E+03  0.58021648783E+03  0.00000000000E+00 0. -1.
          1    1    1    2  503    0  0.89995823224E+01 -0.65439614451E+01 -0.52495871862E+03  0.52507663457E+03  0.00000000000E+00 0. -1.
<mgrwt>
<rscale>  0 0.46366132E+02</rscale>
<asrwt>0</asrwt>
<pdfrwt beam="1">  1        2 0.94600884E-01 0.19320284E+03</pdfrwt>
<pdfrwt beam="2">  1        2 0.16348987E+00 0.11127260E+02</pdfrwt>
<totfact> 0.22273895E+02</totfact>
</mgrwt>
</event>
<event>
13    1  0.1595792E-008  0.4930553E+02  0.7546771E-02  0.1566051E+00
          2   -1    0    0  502    0  0.00000000000E+00  0.00000000000E+00  0.50152961556E+03  0.50152961556E+03  0.00000000000E+00 0. -1.
          2   -1    0    0  503    0 -0.00000000000E+00 -0.00000000000E+00 -0.10767365346E+04  0.10767365346E+04  0.00000000000E+00 0. -1.
         24    2    1    2    0    0 -0.37471351400E+01  0.11290847663E+02 -0.26267636946E+03  0.27472835780E+03  0.79594417161E+02 0.  0.
         25    2    1    2    0    0  0.23279699553E+02  0.21388173113E+02 -0.66590460378E+02  0.14511549555E+03  0.12499927709E+03 0.  0.
         24    2    1    2    0    0  0.44465340956E+02 -0.13718145676E+02  0.13236714529E+02  0.92682742869E+02  0.79053944539E+02 0.  0.
        -13    1    5    5    0    0  0.26364194244E+00  0.29710090984E+02  0.27870409552E+01  0.29841692489E+02  0.00000000000E+00 0.  1.
         14    1    5    5    0    0  0.44201699013E+02 -0.43428236660E+02  0.10449673574E+02  0.62841050380E+02  0.00000000000E+00 0. -1.
        -13    1    3    3    0    0 -0.32938228666E+00  0.42780881612E+02 -0.96473666737E+02  0.10553426315E+03  0.00000000000E+00 0.  1.
         14    1    3    3    0    0 -0.34177528533E+01 -0.31490033949E+02 -0.16620270273E+03  0.16919409465E+03  0.00000000000E+00 0. -1.
          5    1    4    4  501    0  0.31603958906E+02 -0.50097312465E+01  0.30252147029E+02  0.44285325172E+02  0.47000000000E+01 0.  1.
         -5    1    4    4    0  501 -0.83242593523E+01  0.26397904360E+02 -0.96842607408E+02  0.10083017038E+03  0.47000000000E+01 0.  1.
          1    1    1    2  502    0 -0.21484885064E+02  0.57257251037E+01  0.40206172906E+03  0.40267607104E+03  0.00000000000E+00 0. -1.
          1    1    1    2  503    0 -0.42513020305E+02 -0.24686600204E+02 -0.66123853281E+03  0.66306348293E+03  0.00000000000E+00 0. -1.
<mgrwt>
<rscale>  0 0.33110366E+02</rscale>
<asrwt>0</asrwt>
<pdfrwt beam="1">  1        2 0.73754355E-01 0.22234752E+02</pdfrwt>
<pdfrwt beam="2">  1        2 0.15834361E+00 0.49305533E+02</pdfrwt>
<totfact> 0.28771294E+02</totfact>
</mgrwt>
</event>
<event>
13    1  0.1595792E-008  0.7220799E+02  0.7546771E-02  0.1375942E+00
         -3   -1    0    0    0  501 -0.00000000000E+00  0.00000000000E+00  0.39691221364E+03  0.39691221364E+03  0.00000000000E+00 0.  1.
          2   -1    0    0  503    0  0.00000000000E+00 -0.00000000000E+00 -0.38105781825E+04  0.38105781825E+04  0.00000000000E+00 0. -1.
         24    2    1    2    0    0  0.20702924772E+03 -0.41445911300E+03 -0.19105316300E+03  0.50763858446E+03  0.80982439977E+02 0.  0.
         25    2    1    2    0    0  0.18261125210E+01  0.40466193617E+03 -0.11106371948E+04  0.11886522596E+04  0.12499839391E+03 0.  0.
         24    2    1    2    0    0 -0.16415968914E+03  0.12492859980E+02 -0.72741317885E+03  0.75377836267E+03  0.10930421851E+03 0.  0.
        -13    1    3    3    0    0  0.17842910187E+03 -0.29330851719E+03 -0.16294671483E+03  0.38002429202E+03  0.00000000000E+00 0.  1.
         14    1    3    3    0    0  0.28600145849E+02 -0.12115059581E+03 -0.28106448172E+02  0.12761429245E+03  0.00000000000E+00 0. -1.
        -13    1    5    5    0    0 -0.27485443517E+02 -0.33882896688E+02 -0.87289452499E+02  0.97585597354E+02  0.00000000000E+00 0.  1.
         14    1    5    5    0    0 -0.13667424562E+03  0.46375756668E+02 -0.64012372635E+03  0.65619276532E+03  0.00000000000E+00 0. -1.
          5    1    4    4  502    0  0.28565406202E+02  0.21403212912E+02 -0.60102817349E+02  0.70060820776E+02  0.47000000000E+01 0. -1.
         -5    1    4    4    0  502 -0.26739293681E+02  0.38325872325E+03 -0.10505343774E+04  0.11185914388E+04  0.47000000000E+01 0. -1.
          1    1    1    2  503    0 -0.70210972762E+01  0.59076503862E+02 -0.15633843521E+04  0.15645158872E+04  0.00000000000E+00 0. -1.
         -4    1    1    2    0  501 -0.37674573821E+02 -0.61772187009E+02  0.17882191984E+03  0.19290530219E+03  0.00000000000E+00 0.  1.
<mgrwt>
<rscale>  0 0.65542478E+02</rscale>
<asrwt>0</asrwt>
<pdfrwt beam="2">  1        2 0.56037918E+00 0.59492261E+02</pdfrwt>
<pdfrwt beam="1">  1       -3 0.58369439E-01 0.72207987E+02</pdfrwt>
<totfact> 0.18848575E+00</totfact>
</mgrwt>
</event>
<event>
13    1  0.1595792E-008  0.9100217E+02  0.7546771E-02  0.1314081E+00
          2   -1    0    0  502    0  0.00000000000E+00  0.00000000000E+00  0.79374847637E+03  0.79374847637E+03  0.00000000000E+00 0. -1.
          2   -1    0    0  503    0 -0.00000000000E+00 -0.00000000000E+00 -0.22973867816E+04  0.22973867816E+04  0.00000000000E+00 0. -1.
         24    2    1    2    0    0 -0.25964702578E+02 -0.20338188479E+02 -0.15382392682E+03  0.17634362414E+03  0.79670983561E+02 0.  0.
         25    2    1    2    0    0  0.13570681782E+03 -0.40115557338E+02 -0.29497284905E+03  0.35022904468E+03  0.12500321483E+03 0.  0.
         24    2    1    2    0    0 -0.36438609983E+02 -0.92171417356E+02  0.52072524491E+02  0.14017543347E+03  0.84346083881E+02 0.  0.
        -11    1    5    5    0    0  0.16595484285E+01 -0.33703068775E+02 -0.20508783764E+02  0.39487481020E+02  0.00000000000E+00 0.  1.
         12    1    5    5    0    0 -0.38098158411E+02 -0.58468348580E+02  0.72581308255E+02  0.10068795245E+03  0.00000000000E+00 0. -1.
        -13    1    3    3    0    0 -0.36621175614E+02 -0.20953285724E+01 -0.21863483739E+02  0.42702609128E+02  0.00000000000E+00 0.  1.
         14    1    3    3    0    0  0.10656473035E+02 -0.18242859907E+02 -0.13196044308E+03  0.13364101501E+03  0.00000000000E+00 0. -1.
          5    1    4    4  501    0  0.70609882258E+02 -0.61180207668E+02 -0.75262507342E+02  0.12006376762E+03  0.47000000000E+01 0.  1.
         -5    1    4    4    0  501  0.65096935559E+02  0.21064650330E+02 -0.21971034170E+03  0.23016527706E+03  0.47000000000E+01 0.  1.
          1    1    1    2  502    0 -0.44396376372E+02  0.66990188932E+02  0.65512279236E+03  0.66003378453E+03  0.00000000000E+00 0. -1.
          1    1    1    2  503    0 -0.28907128884E+02  0.85634974241E+02 -0.17620368462E+04  0.17643533712E+04  0.00000000000E+00 0. -1.
<mgrwt>
<rscale>  0 0.85518985E+02</rscale>
<asrwt>0</asrwt>
<pdfrwt beam="1">  1        2 0.11672772E+00 0.80366185E+02</pdfrwt>
<pdfrwt beam="2">  1        2 0.33785099E+00 0.91002166E+02</pdfrwt>
<totfact> 0.41004197E+01</totfact>
</mgrwt>
</event>
<event>
13    1  0.1595792E-008  0.1827298E+03  0.7546771E-02  0.1298508E+00
          2   -1    0    0  503    0  0.00000000000E+00  0.00000000000E+00  0.18748866013E+04  0.18748866013E+04  0.00000000000E+00 0. -1.
          2   -1    0    0  502    0 -0.00000000000E+00 -0.00000000000E+00 -0.16802695254E+04  0.16802695254E+04  0.00000000000E+00 0. -1.
         24    2    1    2    0    0 -0.24084819970E+03  0.11357708926E+03 -0.27449103792E+03  0.39147225469E+03  0.83651573744E+02 0.  0.
         25    2    1    2    0    0  0.47811378071E+03 -0.48769360195E+01  0.60362546198E+03  0.78013166488E+03  0.12500057754E+03 0.  0.
         24    2    1    2    0    0 -0.63537392460E+02  0.81095217036E+01  0.31259785984E+03  0.32906670606E+03  0.80403423283E+02 0.  0.
        -11    1    5    5    0    0 -0.22684086401E+01  0.16700856467E+02  0.19901142048E+03  0.19972383375E+03  0.00000000000E+00 0.  1.
         12    1    5    5    0    0 -0.61268983820E+02 -0.85913347637E+01  0.11358643936E+03  0.12934287231E+03  0.00000000000E+00 0. -1.
        -13    1    3    3    0    0 -0.39194696226E+02 -0.11494198935E+02 -0.29353994539E+02  0.50299083658E+02  0.00000000000E+00 0.  1.
         14    1    3    3    0    0 -0.20165350347E+03  0.12507128820E+03 -0.24513704338E+03  0.34117317103E+03  0.00000000000E+00 0. -1.
          5    1    4    4  501    0  0.27285746585E+03  0.46085215367E+02  0.40076387463E+03  0.48704087811E+03  0.47000000000E+01 0.  1.
         -5    1    4    4    0  501  0.20525631486E+03 -0.50962151386E+02  0.20286158735E+03  0.29309078677E+03  0.47000000000E+01 0.  1.
          1    1    1    2  502    0 -0.12910575838E+03 -0.12853327631E+03 -0.12434955868E+04  0.12567698175E+04  0.00000000000E+00 0. -1.
          1    1    1    2  503    0 -0.44622430180E+02  0.11723601370E+02  0.79638037872E+03  0.79771568351E+03  0.00000000000E+00 0. -1.
<mgrwt>
<rscale>  0 0.91818131E+02</rscale>
<asrwt>0</asrwt>
<pdfrwt beam="1">  1        2 0.27571862E+00 0.46136798E+02</pdfrwt>
<pdfrwt beam="2">  1        2 0.24709846E+00 0.18272983E+03</pdfrwt>
<totfact> 0.22029234E+01</totfact>
</mgrwt>
</event>
<event>
13    1  0.1595792E-008  0.5042856E+02  0.7546771E-02  0.1570481E+00
          2   -1    0    0  502    0  0.00000000000E+00  0.00000000000E+00  0.12805562930E+04  0.12805562930E+04  0.00000000000E+00 0. -1.
          2   -1    0    0  503    0 -0.00000000000E+00 -0.00000000000E+00 -0.19336535767E+04  0.19336535767E+04  0.00000000000E+00 0. -1.
         24    2    1    2    0    0 -0.53980365715E+02 -0.19493134797E+02 -0.10025354295E+03  0.13945520729E+03  0.78122466551E+02 0.  0.
         25    2    1    2    0    0  0.33973101247E+02  0.20062292138E+03 -0.34691111044E+03  0.42116112901E+03  0.12500259939E+03 0.  0.
         24    2    1    2    0    0 -0.95704039681E+01 -0.11615783579E+03  0.86607383673E+03  0.87769876812E+03  0.81774087935E+02 0.  0.
        -13    1    5    5    0    0  0.14054893521E+01  0.12403879848E+02  0.10845186974E+03  0.10916794257E+03  0.00000000000E+00 0.  1.
         14    1    5    5    0    0 -0.10975893320E+02 -0.12856171564E+03  0.75762196699E+03  0.76853082556E+03  0.00000000000E+00 0. -1.
        -13    1    3    3    0    0 -0.13994910761E+02 -0.31419152604E+02 -0.41002586290E+01  0.34638602720E+02  0.00000000000E+00 0.  1.
         14    1    3    3    0    0 -0.39985454954E+02  0.11926017807E+02 -0.96153284317E+02  0.10481660457E+03  0.00000000000E+00 0. -1.
          5    1    4    4  501    0  0.74178658444E+02  0.70840099879E+02 -0.15741651929E+03  0.18794372473E+03  0.47000000000E+01 0.  1.
         -5    1    4    4    0  501 -0.40205557197E+02  0.12978282150E+03 -0.18949459115E+03  0.23321740428E+03  0.47000000000E+01 0.  1.
          1    1    1    2  502    0  0.19195481199E+02 -0.46552374973E+02  0.35006402513E+03  0.35366709178E+03  0.00000000000E+00 0. -1.
          1    1    1    2  503    0  0.10382187237E+02 -0.18419575814E+02 -0.14220704921E+04  0.14222276735E+04  0.00000000000E+00 0. -1.
<mgrwt>
<rscale>  0 0.32653693E+02</rscale>
<asrwt>0</asrwt>
<pdfrwt beam="1">  1        2 0.18831710E+00 0.50428559E+02</pdfrwt>
<pdfrwt beam="2">  1        2 0.28436082E+00 0.21144044E+02</pdfrwt>
<totfact> 0.39460947E+01</totfact>
</mgrwt>
</event>
<event>
13    1  0.1595792E-008  0.7266955E+02  0.7546771E-02  0.1359701E+00
         -1   -1    0    0    0  501 -0.00000000000E+00  0.00000000000E+00  0.14659849978E+03  0.14659849978E+03  0.00000000000E+00 0.  1.
          2   -1    0    0  503    0  0.00000000000E+00 -0.00000000000E+00 -0.10873816377E+04  0.10873816377E+04  0.00000000000E+00 0. -1.
         24    2    1    2    0    0  0.93329267538E+01  0.71737621261E+02 -0.36920245089E+02  0.10722425430E+03  0.70003902653E+02 0.  0.
         25    2    1    2    0    0 -0.38458310404E+02 -0.81727961749E+02 -0.41264302833E+03  0.44052039662E+03  0.12500179853E+03 0.  0.
         24    2    1    2    0    0  0.44965528250E+02  0.21836399439E+02 -0.17070462162E+03  0.19544850101E+03  0.81001985359E+02 0.  0.
        -11    1    3    3    0    0 -0.25358743968E+02  0.37680621439E+02 -0.37042731942E+02  0.58609377385E+02  0.00000000000E+00 0.  1.
         12    1    3    3    0    0  0.34691670722E+02  0.34056999822E+02  0.12248685359E+00  0.48614876914E+02  0.00000000000E+00 0. -1.
        -13    1    5    5    0    0  0.58204154433E+02  0.37081638394E+02 -0.97113541104E+02  0.11913778311E+03  0.00000000000E+00 0.  1.
         14    1    5    5    0    0 -0.13238626182E+02 -0.15245238954E+02 -0.73591080520E+02  0.76310717898E+02  0.00000000000E+00 0. -1.
          5    1    4    4  502    0 -0.21510579485E+02  0.12835540091E+02 -0.11417519892E+02  0.27926795013E+02  0.47000000000E+01 0.  1.
         -5    1    4    4    0  502 -0.16947730919E+02 -0.94563501839E+02 -0.40122550844E+03  0.41259360161E+03  0.47000000000E+01 0.  1.
          1    1    1    2  503    0  0.50665714748E+02 -0.44829167600E+02 -0.38594700337E+03  0.39183128809E+03  0.00000000000E+00 0. -1.
         -2    1    1    2    0  501 -0.66505859348E+02  0.32983108648E+02  0.65431760479E+02  0.98955697477E+02  0.00000000000E+00 0.  1.
<mgrwt>
<rscale>  0 0.70115432E+02</rscale>
<asrwt>0</asrwt>
<pdfrwt beam="2">  1        2 0.15990906E+00 0.67651082E+02</pdfrwt>
<pdfrwt beam="1">  1       -1 0.21558603E-01 0.72669552E+02</pdfrwt>
<totfact> 0.52462124E+02</totfact>
</mgrwt>
</event>
<event>
13    1  0.1595792E-008  0.8756226E+02  0.7546771E-02  0.1589361E+00
         -1   -1    0    0    0  501 -0.00000000000E+00  0.00000000000E+00  0.17330791360E+04  0.17330791360E+04  0.00000000000E+00 0.  1.
          2   -1    0    0  503    0  0.00000000000E+00 -0.00000000000E+00 -0.18049609109E+03  0.18049609109E+03  0.00000000000E+00 0. -1.
         24    2    1    2    0    0 -0.11955846562E+03 -0.44914465015E+01  0.67421767967E+03  0.68950612628E+03  0.80838226142E+02 0.  0.
         25    2    1    2    0    0  0.73541688417E+02  0.47204635186E+00  0.37905564713E+03  0.40585392672E+03  0.12500249378E+03 0.  0.
         24    2    1    2    0    0  0.10364439059E+03 -0.46945638180E+02  0.30095164053E+03  0.33048577018E+03  0.75517558922E+02 0.  0.
        -13    1    3    3    0    0 -0.69568878887E+02  0.25183487817E+02  0.23273120328E+03  0.24420861973E+03  0.00000000000E+00 0.  1.
         14    1    3    3    0    0 -0.49989586731E+02 -0.29674934319E+02  0.44148647639E+03  0.44529750656E+03  0.00000000000E+00 0. -1.
        -13    1    5    5    0    0  0.77856839582E+02 -0.38009464896E+02  0.12298383848E+03  0.15043746681E+03  0.00000000000E+00 0.  1.
         14    1    5    5    0    0  0.25787551004E+02 -0.89361732840E+01  0.17796780205E+03  0.18004830337E+03  0.00000000000E+00 0. -1.
          5    1    4    4  502    0 -0.29167926269E+02 -0.19752614927E+02  0.14701895547E+03  0.15125341975E+03  0.47000000000E+01 0.  1.
         -5    1    4    4    0  502  0.10270961469E+03  0.20224661279E+02  0.23203669166E+03  0.25460050697E+03  0.47000000000E+01 0.  1.
          1    1    1    2  503    0 -0.66716562264E+02  0.56867186081E+02 -0.13130970215E+03  0.15788354700E+03  0.00000000000E+00 0. -1.
         -2    1    1    2    0  501  0.90889488797E+01 -0.59021477511E+01  0.32966777969E+03  0.32984585689E+03  0.00000000000E+00 0.  1.
<mgrwt>
<rscale>  0 0.30804665E+02</rscale>
<asrwt>0</asrwt>
<pdfrwt beam="2">  1        2 0.26543544E-01 0.87562255E+02</pdfrwt>
<pdfrwt beam="1">  1       -1 0.25486457E+00 0.10837174E+02</pdfrwt>
<totfact> 0.23954392E+01</totfact>
</mgrwt>
</event>
<event>
13    1  0.1595792E-008  0.1473434E+03  0.7546771E-02  0.1385750E+00
          2   -1    0    0  503    0  0.00000000000E+00  0.00000000000E+00  0.10436784252E+04  0.10436784252E+04  0.00000000000E+00 0. -1.
          2   -1    0    0  502    0 -0.00000000000E+00 -0.00000000000E+00 -0.74986850441E+03  0.74986850441E+03  0.00000000000E+00 0. -1.
         24    2    1    2    0    0 -0.19290827761E+01 -0.12199398057E+02 -0.48601228107E+02  0.95401118925E+02  0.81158779225E+02 0.  0.
         25    2    1    2    0    0 -0.28242226525E+03 -0.21967767486E+03  0.13802230429E+03  0.40335476223E+03  0.12499716393E+03 0.  0.
         24    2    1    2    0    0  0.60161270697E+02  0.10228902780E+03  0.70842157198E+02  0.16021371909E+03  0.81039501780E+02 0.  0.
        -11    1    5    5    0    0  0.88922096662E+00  0.30993739377E+02  0.59123120832E+02  0.66760362577E+02  0.00000000000E+00 0.  1.
         12    1    5    5    0    0  0.59272049730E+02  0.71295288427E+02  0.11719036366E+02  0.93453356518E+02  0.00000000000E+00 0. -1.
        -13    1    3    3    0    0  0.28125064505E+02 -0.27216219996E+02 -0.47821460231E+02  0.61795096431E+02  0.00000000000E+00 0.  1.
         14    1    3    3    0    0 -0.30054147281E+02  0.15016821939E+02 -0.77976787651E+00  0.33606022494E+02  0.00000000000E+00 0. -1.
          5    1    4    4  501    0 -0.16742036467E+03 -0.64989540753E+02  0.29371699534E+02  0.18203847299E+03  0.47000000000E+01 0. -1.
         -5    1    4    4    0  501 -0.11500190058E+03 -0.15468813411E+03  0.10865060476E+03  0.22131628925E+03  0.47000000000E+01 0. -1.
          1    1    1    2  502    0  0.20518821969E+03  0.14865210753E+03 -0.46812836644E+03  0.53230049975E+03  0.00000000000E+00 0. -1.
          1    1    1    2  503    0  0.19001857633E+02 -0.19064062418E+02  0.60167505383E+03  0.60227682960E+03  0.00000000000E+00 0. -1.
<mgrwt>
<rscale>  0 0.62976180E+02</rscale>
<asrwt>0</asrwt>
<pdfrwt beam="1">  1        2 0.15348212E+00 0.26916706E+02</pdfrwt>
<pdfrwt beam="2">  1        2 0.11027478E+00 0.14734341E+03</pdfrwt>
<totfact> 0.19225496E+02</totfact>
</mgrwt>
</event>
<event>
13    1  0.1595792E-008  0.8650919E+02  0.7546771E-02  0.1444113E+00
          2   -1    0    0  502    0  0.00000000000E+00  0.00000000000E+00  0.17165636493E+04  0.17165636493E+04  0.00000000000E+00 0. -1.
          2   -1    0    0  503    0 -0.00000000000E+00 -0.00000000000E+00 -0.18012530015E+04  0.18012530015E+04  0.00000000000E+00 0. -1.
         24    2    1    2    0    0 -0.58603313876E+03  0.61800596269E+02 -0.24989990975E+03  0.64400808193E+03  0.71009092875E+02 0.  0.
         25    2    1    2    0    0  0.61192376049E+03  0.24667896356E+02  0.62893641813E+03  0.88670434432E+03  0.12499752968E+03 0.  0.
         24    2    1    2    0    0 -0.12104559806E+03 -0.21943755411E+02  0.41177279833E+02  0.14461509954E+03  0.63909259345E+02 0.  0.
        -11    1    3    3    0    0 -0.35584619420E+03  0.69334112592E+02 -0.16796763487E+03  0.39955833049E+03  0.00000000000E+00 0.  1.
         12    1    3    3    0    0 -0.23018694455E+03 -0.75335163233E+01 -0.81932274887E+02  0.24444975144E+03  0.00000000000E+00 0. -1.
        -13    1    5    5    0    0 -0.10381004558E+03 -0.23323211893E+02  0.57410306362E+02  0.12089847416E+03  0.00000000000E+00 0.  1.
         14    1    5    5    0    0 -0.17235552473E+02  0.13794564820E+01 -0.16233026529E+02  0.23716625382E+02  0.00000000000E+00 0. -1.
          5    1    4    4  501    0  0.46338312961E+02  0.98952229449E+01  0.11006634599E+02  0.48871164201E+02  0.47000000000E+01 0.  1.
         -5    1    4    4    0  501  0.56558544753E+03  0.14772673411E+02  0.61792978354E+03  0.83783318012E+03  0.47000000000E+01 0.  1.
          1    1    1    2  502    0  0.26729966114E+02 -0.11662350541E+02  0.66688138316E+03  0.66751874933E+03  0.00000000000E+00 0. -1.
          1    1    1    2  503    0  0.68425010213E+02 -0.52862386673E+02 -0.11717845236E+04  0.11749703756E+04  0.00000000000E+00 0. -1.
<mgrwt>
<rscale>  0 0.50228464E+02</rscale>
<asrwt>0</asrwt>
<pdfrwt beam="1">  1        2 0.25243583E+00 0.29163359E+02</pdfrwt>
<pdfrwt beam="2">  1        2 0.26489015E+00 0.86509193E+02</pdfrwt>
<totfact> 0.25450095E+01</totfact>
</mgrwt>
</event>
<event>
13    1  0.1595792E-008  0.8048557E+02  0.7546771E-02  0.1395444E+00
          2   -1    0    0  502    0  0.00000000000E+00  0.00000000000E+00  0.41667704458E+03  0.41667704458E+03  0.00000000000E+00 0. -1.
          2   -1    0    0  503    0 -0.00000000000E+00 -0.00000000000E+00 -0.13509497685E+04  0.13509497685E+04  0.00000000000E+00 0. -1.
         24    2    1    2    0    0  0.16746035337E+03 -0.13969677258E+02 -0.27735113981E+03  0.33421340222E+03  0.80850613087E+02 0.  0.
         25    2    1    2    0    0 -0.17180020112E+03 -0.22132663727E+02 -0.61445361880E+01  0.21370360500E+03  0.12500524612E+03 0.  0.
         24    2    1    2    0    0  0.51967339656E+02  0.74431009162E+02 -0.11442408166E+03  0.16669212371E+03  0.80329410104E+02 0.  0.
        -13    1    3    3    0    0 -0.75327700921E+01  0.58749390451E+01 -0.83438764170E+01  0.12683761576E+02  0.00000000000E+00 0.  1.
         14    1    3    3    0    0  0.17499312346E+03 -0.19844616303E+02 -0.26900726339E+03  0.32152964064E+03  0.00000000000E+00 0. -1.
        -13    1    5    5    0    0  0.26115584256E+02  0.74637609252E+02 -0.41462407603E+02  0.89285652264E+02  0.00000000000E+00 0.  1.
         14    1    5    5    0    0  0.25851755399E+02 -0.20660008966E+00 -0.72961674054E+02  0.77406471445E+02  0.00000000000E+00 0. -1.
          5    1    4    4  501    0 -0.93000437427E+02  0.50850601856E+02 -0.39814177308E+01  0.10617347483E+03  0.47000000000E+01 0.  1.
         -5    1    4    4    0  501 -0.78799763689E+02 -0.72983265583E+02 -0.21631184572E+01  0.10753013017E+03  0.47000000000E+01 0.  1.
          1    1    1    2  502    0 -0.23852771456E+02 -0.77224398023E+02  0.25133532109E+03  0.26401137472E+03  0.00000000000E+00 0. -1.
          1    1    1    2  503    0 -0.23774720455E+02  0.38895729845E+02 -0.78768828740E+03  0.78900630748E+03  0.00000000000E+00 0. -1.
<mgrwt>
<rscale>  0 0.60572627E+02</rscale>
<asrwt>0</asrwt>
<pdfrwt beam="1">  1        2 0.61276037E-01 0.80485568E+02</pdfrwt>
<pdfrwt beam="2">  1        2 0.19866908E+00 0.45586348E+02</pdfrwt>
<totfact> 0.25226832E+02</totfact>
</mgrwt>
</event>
<event>
13    1  0.1595792E-008  0.1355846E+03  0.7546771E-02  0.1286625E+00
          2   -1    0    0  502    0  0.00000000000E+00  0.00000000000E+00  0.19149016593E+04  0.19149016593E+04  0.00000000000E+00 0. -1.
          2   -1    0    0  503    0 -0.00000000000E+00 -0.00000000000E+00 -0.35512099702E+04  0.35512099702E+04  0.00000000000E+00 0. -1.
         24    2    1    2    0    0 -0.21632807165E+03 -0.25229845525E+03 -0.17895923860E+03  0.38583281392E+03  0.79926254208E+02 0.  0.
         25    2    1    2    0    0  0.16904106021E+03  0.30761097012E+03 -0.51542031700E+02  0.37616056348E+03  0.12506318207E+03 0.  0.
         24    2    1    2    0    0 -0.75025227045E+02  0.10827260983E+03  0.11602688884E+03  0.19385426782E+03  0.82252632090E+02 0.  0.
        -13    1    3    3    0    0 -0.98040668521E+02 -0.14854363316E+03 -0.57418699746E+02  0.18701361104E+03  0.00000000000E+00 0.  1.
         14    1    3    3    0    0 -0.11828740313E+03 -0.10375482209E+03 -0.12154053886E+03  0.19881920287E+03  0.00000000000E+00 0. -1.
        -13    1    5    5    0    0 -0.42527708079E+02  0.67431360992E+02  0.16411103840E+02  0.81393603735E+02  0.00000000000E+00 0.  1.
         14    1    5    5    0    0 -0.32497518966E+02  0.40841248839E+02  0.99615784997E+02  0.11246066408E+03  0.00000000000E+00 0. -1.
          5    1    4    4  501    0  0.48997719393E+02  0.18909404344E+02  0.18191828460E+02  0.55779697929E+02  0.47000000000E+01 0. -1.
         -5    1    4    4    0  501  0.12004334082E+03  0.28870156578E+03 -0.69733860160E+02  0.32038086555E+03  0.47000000000E+01 0. -1.
          1    1    1    2  502    0  0.49398789043E+02 -0.48840681789E+02  0.14918743729E+04  0.14934908092E+04  0.00000000000E+00 0. -1.
          1    1    1    2  503    0  0.72913449442E+02 -0.11474444292E+03 -0.30137083023E+04  0.30167731751E+04  0.00000000000E+00 0. -1.
<mgrwt>
<rscale>  0 0.97049683E+02</rscale>
<asrwt>0</asrwt>
<pdfrwt beam="1">  1        2 0.28160319E+00 0.69466917E+02</pdfrwt>
<pdfrwt beam="2">  1        2 0.52223675E+00 0.13558455E+03</pdfrwt>
<totfact> 0.21844560E+00</totfact>
</mgrwt>
</event>
<event>
13    1  0.1595792E-008  0.1057977E+03  0.7546771E-02  0.1307206E+00
          2   -1    0    0  502    0  0.00000000000E+00  0.00000000000E+00  0.59855222995E+03  0.59855222995E+03  0.00000000000E+00 0. -1.
          2   -1    0    0  503    0 -0.00000000000E+00 -0.00000000000E+00 -0.17718019148E+04  0.17718019148E+04  0.00000000000E+00 0. -1.
         24    2    1    2    0    0 -0.28623043496E+02  0.44876208168E+02 -0.16348229340E+03  0.18926756875E+03  0.79136588555E+02 0.  0.
         25    2    1    2    0    0  0.70089658575E+01  0.16898710635E+03  0.13576333043E+03  0.25032628970E+03  0.12500320681E+03 0.  0.
         24    2    1    2    0    0 -0.15703021492E+02  0.66556543134E+01  0.63796451569E+02  0.10373711351E+03  0.80003242866E+02 0.  0.
        -11    1    5    5    0    0  0.19440151953E+02  0.24621230717E+02  0.33544696259E+01  0.31549595503E+02  0.00000000000E+00 0.  1.
         12    1    5    5    0    0 -0.35143173445E+02 -0.17965576404E+02  0.60441981943E+02  0.72187518010E+02  0.00000000000E+00 0. -1.
        -11    1    3    3    0    0  0.14203501003E+02  0.50161933557E+02 -0.85430404962E+02  0.10008153232E+03  0.00000000000E+00 0.  1.
         12    1    3    3    0    0 -0.42826544499E+02 -0.52857253888E+01 -0.78051888439E+02  0.89186036438E+02  0.00000000000E+00 0. -1.
          5    1    4    4  501    0 -0.20577310899E+02  0.27983661820E+02  0.94464818352E+02  0.10075814091E+03  0.47000000000E+01 0. -1.
         -5    1    4    4    0  501  0.27586276756E+02  0.14100344453E+03  0.41298512076E+02  0.14956814879E+03  0.47000000000E+01 0. -1.
          1    1    1    2  502    0 -0.26435191382E+02 -0.68659428520E+02  0.29992201259E+03  0.30881410283E+03  0.00000000000E+00 0. -1.
          1    1    1    2  503    0  0.63752290512E+02 -0.15185954031E+03 -0.15092491861E+04  0.15182090700E+04  0.00000000000E+00 0. -1.
<mgrwt>
<rscale>  0 0.88225962E+02</rscale>
<asrwt>0</asrwt>
<pdfrwt beam="1">  1        2 0.88022388E-01 0.73572661E+02</pdfrwt>
<pdfrwt beam="2">  1        2 0.26055910E+00 0.10579773E+03</pdfrwt>
<totfact> 0.10007936E+02</totfact>
</mgrwt>
</event>
<event>
13    1  0.1595792E-008  0.7686524E+02  0.7546771E-02  0.1516126E+00
         -3   -1    0    0    0  501 -0.00000000000E+00  0.00000000000E+00  0.19855199069E+03  0.19855199069E+03  0.00000000000E+00 0.  1.
          2   -1    0    0  503    0  0.00000000000E+00 -0.00000000000E+00 -0.11603408643E+04  0.11603408643E+04  0.00000000000E+00 0. -1.
         24    2    1    2    0    0 -0.10553283939E+03 -0.24181359628E+02 -0.61644113346E+02  0.14960307795E+03  0.82820081372E+02 0.  0.
         25    2    1    2    0    0  0.11096323695E+03  0.51217059702E+01 -0.40271845289E+03  0.43605732520E+03  0.12499906692E+03 0.  0.
         24    2    1    2    0    0  0.90353287354E+02  0.15858228785E+02 -0.28526984993E+03  0.30943680822E+03  0.77181934680E+02 0.  0.
        -11    1    3    3    0    0 -0.11857037874E+03 -0.20130799995E+02 -0.63201130037E+02  0.13586230772E+03  0.00000000000E+00 0.  1.
         12    1    3    3    0    0  0.13037539343E+02 -0.40505596329E+01  0.15570166907E+01  0.13740770227E+02  0.00000000000E+00 0. -1.
        -13    1    5    5    0    0  0.33066462439E+02  0.44002154724E+02 -0.11222602166E+03  0.12499704195E+03  0.00000000000E+00 0.  1.
         14    1    5    5    0    0  0.57286824915E+02 -0.28143925939E+02 -0.17304382828E+03  0.18443976627E+03  0.00000000000E+00 0. -1.
          5    1    4    4  502    0 -0.11572916244E+01  0.43516041224E+02 -0.16041435952E+03  0.16628241611E+03  0.47000000000E+01 0. -1.
         -5    1    4    4    0  502  0.11212052857E+03 -0.38394335253E+02 -0.24230409337E+03  0.26977490908E+03  0.47000000000E+01 0. -1.
          1    1    1    2  503    0 -0.19198270501E+02  0.45565116278E+01 -0.32599215484E+03  0.32658876344E+03  0.00000000000E+00 0. -1.
         -4    1    1    2    0  501 -0.76585414406E+02 -0.13550867556E+01  0.11383569742E+03  0.13720688018E+03  0.00000000000E+00 0.  1.
<mgrwt>
<rscale>  0 0.38944485E+02</rscale>
<asrwt>0</asrwt>
<pdfrwt beam="2">  1        2 0.17063835E+00 0.19731584E+02</pdfrwt>
<pdfrwt beam="1">  1       -3 0.29198824E-01 0.76865241E+02</pdfrwt>
<totfact> 0.17241571E+02</totfact>
</mgrwt>
</event>
<event>
13    1  0.1595792E-008  0.5934519E+02  0.7546771E-02  0.1479815E+00
          2   -1    0    0  503    0  0.00000000000E+00  0.00000000000E+00  0.28382047150E+03  0.28382047150E+03  0.00000000000E+00 0. -1.
          2   -1    0    0  502    0 -0.00000000000E+00 -0.00000000000E+00 -0.70181686339E+03  0.70181686339E+03  0.00000000000E+00 0. -1.
         24    2    1    2    0    0  0.61948547457E+02  0.66830110768E+02 -0.19097325511E+03  0.22966165615E+03  0.89273769408E+02 0.  0.
         25    2    1    2    0    0 -0.16250771428E+03 -0.76924209250E+02 -0.19128312071E+03  0.29075878845E+03  0.12500139849E+03 0.  0.
         24    2    1    2    0    0  0.10708648587E+03 -0.31028106474E+02  0.10728180728E+03  0.17464830294E+03  0.81008547065E+02 0.  0.
        -11    1    5    5    0    0 -0.77345138357E+01 -0.17488664232E+02  0.30016926308E+02  0.35590615981E+02  0.00000000000E+00 0.  1.
         12    1    5    5    0    0  0.11482099971E+03 -0.13539442242E+02  0.77264880975E+02  0.13905768696E+03  0.00000000000E+00 0. -1.
        -13    1    3    3    0    0  0.69524697695E+02  0.11840983928E+02 -0.88961291019E+02  0.11352534426E+03  0.00000000000E+00 0.  1.
         14    1    3    3    0    0 -0.75761502379E+01  0.54989126840E+02 -0.10201196409E+03  0.11613631189E+03  0.00000000000E+00 0. -1.
          5    1    4    4  501    0 -0.97270566494E+02  0.17483363512E+02 -0.57488067257E+02  0.11442988675E+03  0.47000000000E+01 0.  1.
         -5    1    4    4    0  501 -0.65237147786E+02 -0.94407572762E+02 -0.13379505345E+03  0.17632890170E+03  0.47000000000E+01 0.  1.
          1    1    1    2  502    0 -0.39084999802E+02  0.45289248794E+02 -0.20872184738E+03  0.21712568443E+03  0.00000000000E+00 0. -1.
          1    1    1    2  503    0  0.32557680754E+02 -0.41670438391E+01  0.65700024028E+02  0.73442902909E+02  0.00000000000E+00 0. -1.
<mgrwt>
<rscale>  0 0.44135053E+02</rscale>
<asrwt>0</asrwt>
<pdfrwt beam="1">  1        2 0.41738305E-01 0.32823267E+02</pdfrwt>
<pdfrwt beam="2">  1        2 0.10320836E+00 0.59345186E+02</pdfrwt>
<totfact> 0.84998549E+02</totfact>
</mgrwt>
</event>
<event>
13    1  0.1595792E-008  0.2180133E+03  0.7546771E-02  0.1350471E+00
          2   -1    0    0  503    0  0.00000000000E+00  0.00000000000E+00  0.40924345932E+04  0.40924345932E+04  0.00000000000E+00 0. -1.
          2   -1    0    0  502    0 -0.00000000000E+00 -0.00000000000E+00 -0.39660038074E+04  0.39660038074E+04  0.00000000000E+00 0. -1.
         24    2    1    2    0    0  0.23993343152E+03 -0.10202163812E+03 -0.57450473394E+03  0.63588776556E+03  0.79505313443E+02 0.  0.
         25    2    1    2    0    0  0.83801651776E+03 -0.48516706712E+03 -0.40834782620E+03  0.10583152999E+04  0.12499823930E+03 0.  0.
         24    2    1    2    0    0 -0.99708354636E+03  0.39542535237E+03  0.38406861549E+03  0.11406289097E+04  0.54669923326E+02 0.  0.
        -11    1    5    5    0    0 -0.59092342723E+03  0.21096832506E+03  0.20754042274E+03  0.66088664543E+03  0.00000000000E+00 0.  1.
         12    1    5    5    0    0 -0.40616011913E+03  0.18445702731E+03  0.17652819275E+03  0.47974226427E+03  0.00000000000E+00 0. -1.
        -13    1    3    3    0    0  0.17568273466E+03 -0.10304021796E+03 -0.38143536616E+03  0.43240565252E+03  0.00000000000E+00 0.  1.
         14    1    3    3    0    0  0.64250696853E+02  0.10185798408E+01 -0.19306936778E+03  0.20348211304E+03  0.00000000000E+00 0. -1.
          5    1    4    4  501    0  0.17414446011E+03 -0.50070746981E+02 -0.97849666182E+02  0.20598548459E+03  0.47000000000E+01 0. -1.
         -5    1    4    4    0  501  0.66387205766E+03 -0.43509632014E+03 -0.31049816002E+03  0.85232981534E+03  0.47000000000E+01 0. -1.
          1    1    1    2  502    0 -0.10523669973E+03  0.19099159915E+03 -0.22438601663E+04  0.22544314138E+04  0.00000000000E+00 0. -1.
          1    1    1    2  503    0  0.24370296817E+02  0.77175372268E+00  0.29690748968E+04  0.29691750116E+04  0.00000000000E+00 0. -1.
<mgrwt>
<rscale>  0 0.72908939E+02</rscale>
<asrwt>0</asrwt>
<pdfrwt beam="1">  1        2 0.60182862E+00 0.24382514E+02</pdfrwt>
<pdfrwt beam="2">  1        2 0.58323585E+00 0.21801335E+03</pdfrwt>
<totfact> 0.92796508E-02</totfact>
</mgrwt>
</event>
<event>
13    1  0.1595792E-008  0.5178474E+02  0.7546771E-02  0.1594637E+00
          2   -1    0    0  502    0  0.00000000000E+00  0.00000000000E+00  0.29635738399E+03  0.29635738399E+03  0.00000000000E+00 0. -1.
          2   -1    0    0  503    0 -0.00000000000E+00 -0.00000000000E+00 -0.72922762306E+03  0.72922762306E+03  0.00000000000E+00 0. -1.
         24    2    1    2    0    0 -0.22815125252E+03  0.10042194961E+02 -0.37450042187E+03  0.44572456077E+03  0.79157933156E+02 0.  0.
         25    2    1    2    0    0  0.22349658018E+03 -0.55416635890E+02  0.40546888361E+02  0.26512249569E+03  0.12499665067E+03 0.  0.
         24    2    1    2    0    0  0.48769397856E+01 -0.77651824240E+00  0.14163448351E+01  0.80644970912E+02  0.80481164122E+02 0.  0.
        -11    1    3    3    0    0 -0.59903971938E+02 -0.30032382725E+02 -0.81791195252E+02  0.10573660429E+03  0.00000000000E+00 0.  1.
         12    1    3    3    0    0 -0.16824728059E+03  0.40074577686E+02 -0.29270922662E+03  0.33998795648E+03  0.00000000000E+00 0. -1.
        -13    1    5    5    0    0  0.40721705531E+02  0.12169346276E+02  0.16529527385E+01  0.42533310980E+02  0.00000000000E+00 0.  1.
         14    1    5    5    0    0 -0.35844765746E+02 -0.12945864518E+02 -0.23660790345E+00  0.38111659932E+02  0.00000000000E+00 0. -1.
          5    1    4    4  501    0  0.10828281251E+03 -0.24591867600E+02  0.82706898757E+02  0.13853681294E+03  0.47000000000E+01 0.  1.
         -5    1    4    4    0  501  0.11521376767E+03 -0.30824768290E+02 -0.42160010396E+02  0.12658568275E+03  0.47000000000E+01 0.  1.
          1    1    1    2  502    0 -0.17521370734E+02 -0.28147988167E+01  0.61564053418E+02  0.64070696874E+02  0.00000000000E+00 0. -1.
          1    1    1    2  503    0  0.17299103290E+02  0.48965757988E+02 -0.16189710381E+03  0.17002228281E+03  0.00000000000E+00 0. -1.
<mgrwt>
<rscale>  0 0.30314575E+02</rscale>
<asrwt>0</asrwt>
<pdfrwt beam="1">  1        2 0.43581968E-01 0.17746028E+02</pdfrwt>
<pdfrwt beam="2">  1        2 0.10723936E+00 0.51784738E+02</pdfrwt>
<totfact> 0.77168251E+02</totfact>
</mgrwt>
</event>
<event>
13    1  0.1595792E-008  0.5622530E+02  0.7546771E-02  0.1456675E+00
         -3   -1    0    0    0  501 -0.00000000000E+00  0.00000000000E+00  0.40444447164E+03  0.40444447164E+03  0.00000000000E+00 0.  1.
          2   -1    0    0  503    0  0.00000000000E+00 -0.00000000000E+00 -0.14379483275E+04  0.14379483275E+04  0.00000000000E+00 0. -1.
         24    2    1    2    0    0 -0.35280816312E+01 -0.85677845423E+02  0.15772575277E+03  0.19517687051E+03  0.76573214248E+02 0.  0.
         25    2    1    2    0    0 -0.22224329273E+02  0.93090164394E+02 -0.14291383084E+03  0.21262518948E+03  0.12500163453E+03 0.  0.
         24    2    1    2    0    0 -0.68183646249E+02  0.16726867818E+02 -0.16313458190E+03  0.19476932096E+03  0.79958732188E+02 0.  0.
        -13    1    5    5    0    0 -0.36725814894E+02  0.44359332760E+02 -0.12705874975E+03  0.13950075903E+03  0.00000000000E+00 0.  1.
         14    1    5    5    0    0 -0.31457831356E+02 -0.27632464942E+02 -0.36075832151E+02  0.55268561930E+02  0.00000000000E+00 0. -1.
        -13    1    3    3    0    0  0.29566961989E+02 -0.68363390689E+02  0.12504462278E+03  0.14554695502E+03  0.00000000000E+00 0.  1.
         14    1    3    3    0    0 -0.33095043620E+02 -0.17314454734E+02  0.32681129986E+02  0.49629915495E+02  0.00000000000E+00 0. -1.
          5    1    4    4  502    0 -0.68457245282E+02  0.48115230913E+02 -0.44565475834E+02  0.94919131442E+02  0.47000000000E+01 0.  1.
         -5    1    4    4    0  502  0.46232916009E+02  0.44974933481E+02 -0.98348355011E+02  0.11770605803E+03  0.47000000000E+01 0.  1.
          1    1    1    2  503    0  0.54503971568E+02 -0.13253207264E+02 -0.10593901431E+04  0.10608740763E+04  0.00000000000E+00 0. -1.
         -4    1    1    2    0  501  0.39432085585E+02 -0.10885979525E+02  0.17420894717E+03  0.17894734197E+03  0.00000000000E+00 0.  1.
<mgrwt>
<rscale>  0 0.47958482E+02</rscale>
<asrwt>0</asrwt>
<pdfrwt beam="2">  1        2 0.21146299E+00 0.56225297E+02</pdfrwt>
<pdfrwt beam="1">  1       -3 0.59477129E-01 0.40907138E+02</pdfrwt>
<totfact> 0.28861785E+01</totfact>
</mgrwt>
</event>
<event>
13    1  0.1595792E-008  0.6299722E+02  0.7546771E-02  0.1466337E+00
          2   -1    0    0  503    0  0.00000000000E+00  0.00000000000E+00  0.23732326610E+04  0.23732326610E+04  0.00000000000E+00 0. -1.
          2   -1    0    0  502    0 -0.00000000000E+00 -0.00000000000E+00 -0.17505196282E+04  0.17505196282E+04  0.00000000000E+00 0. -1.
         24    2    1    2    0    0  0.16646108388E+03 -0.62706512441E+02 -0.14479240384E+04  0.14611667449E+04  0.82962861304E+02 0.  0.
         25    2    1    2    0    0 -0.19358238505E+03 -0.18281998692E+02  0.14314241778E+03  0.27188997828E+03  0.12500414890E+03 0.  0.
         24    2    1    2    0    0 -0.23316275793E+02  0.10010629810E+03  0.33001042045E+03  0.35452051341E+03  0.78822567766E+02 0.  0.
        -11    1    3    3    0    0  0.67735762004E+02 -0.69696820856E+02 -0.74228711769E+03  0.74862269895E+03  0.00000000000E+00 0.  1.
         12    1    3    3    0    0  0.98725321877E+02  0.69903084152E+01 -0.70563692069E+03  0.71254404596E+03  0.00000000000E+00 0. -1.
        -13    1    5    5    0    0  0.14996208380E+02  0.11333787753E+02  0.14068457403E+03  0.14193481032E+03  0.00000000000E+00 0.  1.
         14    1    5    5    0    0 -0.38312484173E+02  0.88772510350E+02  0.18932584642E+03  0.21258570309E+03  0.00000000000E+00 0. -1.
          5    1    4    4  501    0 -0.81495329951E+02 -0.28436869540E+02  0.13322286636E+03  0.15880984376E+03  0.47000000000E+01 0. -1.
         -5    1    4    4    0  501 -0.11208705510E+03  0.10154870848E+02  0.99195514217E+01  0.11308013452E+03  0.47000000000E+01 0. -1.
          1    1    1    2  502    0  0.12916477121E+02  0.31494541730E+02 -0.21747482650E+03  0.22012278778E+03  0.00000000000E+00 0. -1.
          1    1    1    2  503    0  0.37521099844E+02 -0.50612328700E+02  0.18149590595E+04  0.18160522648E+04  0.00000000000E+00 0. -1.
<mgrwt>
<rscale>  0 0.46308138E+02</rscale>
<asrwt>0</asrwt>
<pdfrwt beam="1">  1        2 0.34900480E+00 0.62997215E+02</pdfrwt>
<pdfrwt beam="2">  1        2 0.25742936E+00 0.34040293E+02</pdfrwt>
<totfact> 0.13365911E+01</totfact>
</mgrwt>
</event>
<event>
13    1  0.1595792E-008  0.1700382E+03  0.7546771E-02  0.1315115E+00
          2   -1    0    0  503    0  0.00000000000E+00  0.00000000000E+00  0.24604417864E+04  0.24604417864E+04  0.00000000000E+00 0. -1.
          2   -1    0    0  502    0 -0.00000000000E+00 -0.00000000000E+00 -0.21671330657E+04  0.21671330657E+04  0.00000000000E+00 0. -1.
         24    2    1    2    0    0 -0.66673320269E+02  0.15447665720E+03 -0.63301084808E+03  0.65983547925E+03  0.79823283740E+02 0.  0.
         25    2    1    2    0    0  0.15357155110E+03 -0.59840084349E+02  0.73300130049E+02  0.21946081668E+03  0.12500033596E+03 0.  0.
         24    2    1    2    0    0  0.33049678492E+02  0.53091769643E+02  0.12222784318E+03  0.15898748997E+03  0.80164574889E+02 0.  0.
        -13    1    3    3    0    0 -0.25787713061E+02  0.12692131466E+01 -0.12554083706E+03  0.12816832220E+03  0.00000000000E+00 0.  1.
         14    1    3    3    0    0 -0.40885607208E+02  0.15320744406E+03 -0.50747001102E+03  0.53166715704E+03  0.00000000000E+00 0. -1.
        -13    1    5    5    0    0  0.55977999355E+02  0.19969535724E+02  0.87641900728E+02  0.10589344424E+03  0.00000000000E+00 0.  1.
         14    1    5    5    0    0 -0.22928320863E+02  0.33122233919E+02  0.34585942448E+02  0.53094045734E+02  0.00000000000E+00 0. -1.
          5    1    4    4  501    0 -0.15763247853E+02 -0.28418661143E+02  0.16819985116E+01  0.32878859515E+02  0.47000000000E+01 0. -1.
         -5    1    4    4    0  501  0.16933479896E+03 -0.31421423207E+02  0.71618131538E+02  0.18658195716E+03  0.47000000000E+01 0. -1.
          1    1    1    2  502    0 -0.86952387809E+02 -0.17469276437E+03 -0.14223774100E+04  0.14357004480E+04  0.00000000000E+00 0. -1.
          1    1    1    2  503    0 -0.32995521519E+02  0.26964421877E+02  0.21531690056E+04  0.21535906182E+04  0.00000000000E+00 0. -1.
<mgrwt>
<rscale>  0 0.85121500E+02</rscale>
<asrwt>0</asrwt>
<pdfrwt beam="1">  1        2 0.36182968E+00 0.42612023E+02</pdfrwt>
<pdfrwt beam="2">  1        2 0.31869604E+00 0.17003816E+03</pdfrwt>
<totfact> 0.68595043E+00</totfact>
</mgrwt>
</event>
<event>
13    1  0.1595792E-008  0.6160974E+02  0.7546771E-02  0.1511647E+00
          2   -1    0    0  503    0  0.00000000000E+00  0.00000000000E+00  0.13545729085E+04  0.13545729085E+04  0.00000000000E+00 0. -1.
          2   -1    0    0  502    0 -0.00000000000E+00 -0.00000000000E+00 -0.22791420029E+04  0.22791420029E+04  0.00000000000E+00 0. -1.
         24    2    1    2    0    0 -0.90566975723E+02 -0.25849184196E+03 -0.33971133841E+03  0.44383771889E+03  0.81041457380E+02 0.  0.
         25    2    1    2    0    0 -0.94633551868E+02  0.51571107139E+03 -0.46138336251E+03  0.70951608769E+03  0.12500021280E+03 0.  0.
         24    2    1    2    0    0  0.22976809365E+03 -0.32353233135E+03  0.59003812200E+03  0.71675893676E+03  0.90176725010E+02 0.  0.
        -11    1    5    5    0    0  0.12432408043E+03 -0.10698943664E+03  0.27500955638E+03  0.32020848306E+03  0.00000000000E+00 0.  1.
         12    1    5    5    0    0  0.10544401322E+03 -0.21654289471E+03  0.31502856562E+03  0.39655045370E+03  0.00000000000E+00 0. -1.
        -13    1    3    3    0    0 -0.12932873878E+02 -0.14281372666E+03 -0.14059085074E+03  0.20082033528E+03  0.00000000000E+00 0.  1.
         14    1    3    3    0    0 -0.77634101845E+02 -0.11567811530E+03 -0.19912048767E+03  0.24301738361E+03  0.00000000000E+00 0. -1.
          5    1    4    4  501    0 -0.54656443184E+01  0.50141819249E+00 -0.32331059105E+02  0.33128719729E+02  0.47000000000E+01 0. -1.
         -5    1    4    4    0  501 -0.89167907549E+02  0.51520965319E+03 -0.42905230340E+03  0.67638736796E+03  0.47000000000E+01 0. -1.
          1    1    1    2  502    0  0.14003952212E+01  0.25333471822E+02 -0.12366210229E+04  0.12368812798E+04  0.00000000000E+00 0. -1.
          1    1    1    2  503    0 -0.45967961279E+02  0.40979630104E+02  0.52310850743E+03  0.52672088822E+03  0.00000000000E+00 0. -1.
<mgrwt>
<rscale>  0 0.39536963E+02</rscale>
<asrwt>0</asrwt>
<pdfrwt beam="1">  1        2 0.19920190E+00 0.61609740E+02</pdfrwt>
<pdfrwt beam="2">  1        2 0.33516794E+00 0.25372148E+02</pdfrwt>
<totfact> 0.24467852E+01</totfact>
</mgrwt>
</event>
<event>
13    1  0.1595792E-008  0.1457915E+03  0.7546771E-02  0.1344748E+00
         -3   -1    0    0    0  501 -0.00000000000E+00  0.00000000000E+00  0.12022826217E+04  0.12022826217E+04  0.00000000000E+00 0.  1.
          2   -1    0    0  503    0  0.00000000000E+00 -0.00000000000E+00 -0.13939006247E+04  0.13939006247E+04  0.00000000000E+00 0. -1.
         24    2    1    2    0    0  0.13845213474E+03 -0.15225637573E+03  0.24139009105E+03  0.32736873269E+03  0.80932771638E+02 0.  0.
         25    2    1    2    0    0 -0.31399602636E+02  0.13170880305E+03  0.24684370335E+03  0.30804327158E+03  0.12500279770E+03 0.  0.
         24    2    1    2    0    0 -0.84758698783E+02  0.17888642741E+03  0.12074169198E+03  0.24515701736E+03  0.79617937969E+02 0.  0.
        -11    1    3    3    0    0  0.61701124499E+02 -0.14485624751E+02  0.66067244211E+02  0.91551858783E+02  0.00000000000E+00 0.  1.
         12    1    3    3    0    0  0.76751010237E+02 -0.13777075098E+03  0.17532284684E+03  0.23581687391E+03  0.00000000000E+00 0. -1.
        -11    1    5    5    0    0  0.82490108695E+01  0.67729600659E+02  0.33777283600E+02  0.76133106289E+02  0.00000000000E+00 0.  1.
         12    1    5    5    0    0 -0.93007709652E+02  0.11115682675E+03  0.86964408383E+02  0.16902391107E+03  0.00000000000E+00 0. -1.
          5    1    4    4  502    0 -0.81248977426E+01  0.38647643063E+02  0.19477570331E+03  0.19879466511E+03  0.47000000000E+01 0. -1.
         -5    1    4    4    0  502 -0.23274704894E+02  0.93061159988E+02  0.52068000040E+02  0.10924860646E+03  0.47000000000E+01 0. -1.
          1    1    1    2  503    0  0.13635827217E+02 -0.14509662893E+03 -0.12530720084E+04  0.12615183018E+04  0.00000000000E+00 0. -1.
         -4    1    1    2    0  501 -0.35929660534E+02 -0.13242225807E+02  0.45247851907E+03  0.45409592299E+03  0.00000000000E+00 0.  1.
<mgrwt>
<rscale>  0 0.74717368E+02</rscale>
<asrwt>0</asrwt>
<pdfrwt beam="2">  1        2 0.20498538E+00 0.14579148E+03</pdfrwt>
<pdfrwt beam="1">  1       -3 0.17680627E+00 0.38292258E+02</pdfrwt>
<totfact> 0.25144411E+00</totfact>
</mgrwt>
</event>
<event>
13    1  0.1595792E-008  0.8960224E+02  0.7546771E-02  0.1370164E+00
          4   -1    0    0  503    0 -0.00000000000E+00  0.00000000000E+00  0.25740608368E+04  0.25740608368E+04  0.00000000000E+00 0. -1.
          2   -1    0    0  502    0  0.00000000000E+00 -0.00000000000E+00 -0.21897727510E+03  0.21897727510E+03  0.00000000000E+00 0. -1.
         24    2    1    2    0    0  0.93278043037E+02  0.18721725560E+03  0.10656215380E+04  0.10885205986E+04  0.74677554261E+02 0.  0.
         25    2    1    2    0    0 -0.16971671529E+03 -0.11383544553E+03  0.37724356312E+03  0.44687538213E+03  0.12499051614E+03 0.  0.
         24    2    1    2    0    0  0.95091894067E+02 -0.30906888546E+02  0.31201041774E+03  0.33726593767E+03  0.80000674075E+02 0.  0.
        -11    1    5    5    0    0 -0.54356627586E+01 -0.26051028439E+02  0.81702751342E+02  0.85927539760E+02  0.00000000000E+00 0.  1.
         12    1    5    5    0    0  0.10052755683E+03 -0.48558601070E+01  0.23030766640E+03  0.25133839791E+03  0.00000000000E+00 0. -1.
        -13    1    3    3    0    0  0.83632949409E+00  0.48503955756E+02  0.14417491139E+03  0.15211751459E+03  0.00000000000E+00 0.  1.
         14    1    3    3    0    0  0.92441713543E+02  0.13871329984E+03  0.92144662664E+03  0.93640308399E+03  0.00000000000E+00 0. -1.
          5    1    4    4  501    0 -0.10037017413E+03 -0.21641046660E+02  0.87536116008E+02  0.13500803073E+03  0.47000000000E+01 0. -1.
         -5    1    4    4    0  501 -0.69346541162E+02 -0.92194398872E+02  0.28970744712E+03  0.31186735140E+03  0.47000000000E+01 0. -1.
          1    1    1    2  502    0 -0.64867464423E+02 -0.62285515595E+02 -0.14654184261E+03  0.17193540947E+03  0.00000000000E+00 0. -1.
          3    1    1    2  503    0  0.46214242611E+02  0.19810594073E+02  0.74674988540E+03  0.74844078403E+03  0.00000000000E+00 0. -1.
<mgrwt>
<rscale>  0 0.67121704E+02</rscale>
<asrwt>0</asrwt>
<pdfrwt beam="2">  1        2 0.32202542E-01 0.89602241E+02</pdfrwt>
<pdfrwt beam="1">  1        4 0.37853834E+00 0.50281367E+02</pdfrwt>
<totfact> 0.11976710E+00</totfact>
</mgrwt>
</event>
<event>
13    1  0.1595792E-008  0.4708427E+02  0.7546771E-02  0.1525977E+00
          2   -1    0    0  502    0  0.00000000000E+00  0.00000000000E+00  0.10189639140E+04  0.10189639140E+04  0.00000000000E+00 0. -1.
          2   -1    0    0  503    0 -0.00000000000E+00 -0.00000000000E+00 -0.21743481820E+04  0.21743481820E+04  0.00000000000E+00 0. -1.
         24    2    1    2    0    0 -0.57175801750E+02 -0.33521483312E+02 -0.16107977475E+04  0.16140887156E+04  0.78868474179E+02 0.  0.
         25    2    1    2    0    0  0.91913120790E+01  0.43546145842E+02  0.97370471880E+02  0.16458027438E+03  0.12499964354E+03 0.  0.
         24    2    1    2    0    0  0.79124248106E+02 -0.56426070308E+02  0.19119503395E+03  0.22914285697E+03  0.80662009934E+02 0.  0.
        -13    1    3    3    0    0  0.18953990057E+02  0.10382502490E+01 -0.24490877443E+03  0.24564331763E+03  0.00000000000E+00 0.  1.
         14    1    3    3    0    0 -0.76129791806E+02 -0.34559733561E+02 -0.13658889731E+04  0.13684453980E+04  0.00000000000E+00 0. -1.
        -13    1    5    5    0    0 -0.35669537593E+01 -0.32138073920E+02  0.21542476524E+02  0.38854307987E+02  0.00000000000E+00 0.  1.
         14    1    5    5    0    0  0.82691201865E+02 -0.24287996389E+02  0.16965255742E+03  0.19028854899E+03  0.00000000000E+00 0. -1.
          5    1    4    4  501    0 -0.91257135104E+01  0.33073194160E+01 -0.28827801924E+02  0.30779037876E+02  0.47000000000E+01 0.  1.
         -5    1    4    4    0  501  0.18317025589E+02  0.40238826427E+02  0.12619827380E+03  0.13380123650E+03  0.47000000000E+01 0.  1.
          1    1    1    2  502    0 -0.98600617097E+00  0.47073964310E+02  0.67490666717E+03  0.67654707132E+03  0.00000000000E+00 0. -1.
          1    1    1    2  503    0 -0.30153752264E+02 -0.67255653233E+00 -0.50805869352E+03  0.50895317778E+03  0.00000000000E+00 0. -1.
<mgrwt>
<rscale>  0 0.37684487E+02</rscale>
<asrwt>0</asrwt>
<pdfrwt beam="1">  1        2 0.14984764E+00 0.47084272E+02</pdfrwt>
<pdfrwt beam="2">  1        2 0.31975708E+00 0.30161252E+02</pdfrwt>
<totfact> 0.40458402E+01</totfact>
</mgrwt>
</event>
<event>
13    1  0.1595792E-008  0.1062554E+03  0.7546771E-02  0.1336860E+00
          2   -1    0    0  503    0  0.00000000000E+00  0.00000000000E+00  0.36981847826E+04  0.36981847826E+04  0.00000000000E+00 0. -1.
          2   -1    0    0  502    0 -0.00000000000E+00 -0.00000000000E+00 -0.86611192584E+03  0.86611192584E+03  0.00000000000E+00 0. -1.
         24    2    1    2    0    0 -0.39729705075E+02  0.35338634332E+01 -0.59449456720E+02  0.10820540300E+03  0.81137128854E+02 0.  0.
         25    2    1    2    0    0  0.90975564963E+02  0.17039621364E+03  0.17570409804E+03  0.28949815749E+03  0.12500332027E+03 0.  0.
         24    2    1    2    0    0  0.21157026058E+02 -0.49260996934E+02  0.45624259394E+03  0.46632445237E+03  0.80168103275E+02 0.  0.
        -11    1    3    3    0    0 -0.15693027732E+02  0.42086847083E+02 -0.31549222428E+02  0.54890138026E+02  0.00000000000E+00 0.  1.
         12    1    3    3    0    0 -0.24036677343E+02 -0.38552983649E+02 -0.27900234292E+02  0.53315264977E+02  0.00000000000E+00 0. -1.
        -13    1    5    5    0    0 -0.19418419306E+02 -0.17635163943E+02  0.46694375445E+02  0.53557807217E+02  0.00000000000E+00 0.  1.
         14    1    5    5    0    0  0.40575445364E+02 -0.31625832991E+02  0.40954821849E+03  0.41276664515E+03  0.00000000000E+00 0. -1.
          5    1    4    4  501    0  0.11902274602E+03  0.13688582122E+03  0.11601482983E+03  0.21537333368E+03  0.47000000000E+01 0.  1.
         -5    1    4    4    0  501 -0.28047181054E+02  0.33510392420E+02  0.59689268209E+02  0.74124823807E+02  0.47000000000E+01 0.  1.
          1    1    1    2  502    0 -0.62440097081E+02 -0.69307065267E+02 -0.71705953654E+03  0.72310207714E+03  0.00000000000E+00 0. -1.
          1    1    1    2  503    0 -0.99627888649E+01 -0.55362014873E+02  0.29766351580E+04  0.29771666184E+04  0.00000000000E+00 0. -1.
<mgrwt>
<rscale>  0 0.77311109E+02</rscale>
<asrwt>0</asrwt>
<pdfrwt beam="1">  1        2 0.54385070E+00 0.56251310E+02</pdfrwt>
<pdfrwt beam="2">  1        2 0.12736940E+00 0.10625544E+03</pdfrwt>
<totfact> 0.70993384E+00</totfact>
</mgrwt>
</event>
<event>
13    1  0.1595792E-008  0.9481319E+02  0.7546771E-02  0.1354959E+00
          2   -1    0    0  503    0  0.00000000000E+00  0.00000000000E+00  0.60784681526E+03  0.60784681526E+03  0.00000000000E+00 0. -1.
          2   -1    0    0  502    0 -0.00000000000E+00 -0.00000000000E+00 -0.11646444528E+04  0.11646444528E+04  0.00000000000E+00 0. -1.
         24    2    1    2    0    0  0.37651688481E+02 -0.35054760849E+02 -0.14530676514E+03  0.16487072966E+03  0.58496287063E+02 0.  0.
         25    2    1    2    0    0  0.12876470723E+03  0.89525962308E+02 -0.27730907989E+03  0.34222895989E+03  0.12500034979E+03 0.  0.
         24    2    1    2    0    0 -0.18906520364E+02  0.17560927222E+02  0.79425400886E+02  0.11632524560E+03  0.80977316459E+02 0.  0.
        -11    1    3    3    0    0  0.53436102246E+02 -0.30177751674E+02 -0.11339852959E+03  0.12893928894E+03  0.00000000000E+00 0.  1.
         12    1    3    3    0    0 -0.15784413765E+02 -0.48770091748E+01 -0.31908235541E+02  0.35931440713E+02  0.00000000000E+00 0. -1.
        -11    1    5    5    0    0  0.78029339195E+01 -0.12844745043E+02 -0.10079270842E+02  0.18095992752E+02  0.00000000000E+00 0.  1.
         12    1    5    5    0    0 -0.26709454284E+02  0.30405672264E+02  0.89504671729E+02  0.98229252849E+02  0.00000000000E+00 0. -1.
          5    1    4    4  501    0  0.66643657707E+02  0.11063650769E+03 -0.21917256318E+03  0.25444157758E+03  0.47000000000E+01 0. -1.
         -5    1    4    4    0  501  0.62121049518E+02 -0.21110545386E+02 -0.58136516704E+02  0.87787382318E+02  0.47000000000E+01 0. -1.
          1    1    1    2  502    0 -0.98049675355E+02 -0.50439996039E+02 -0.67529362521E+03  0.68423637164E+03  0.00000000000E+00 0. -1.
          1    1    1    2  503    0 -0.49460199987E+02 -0.21592132642E+02  0.46168643181E+03  0.46482996126E+03  0.00000000000E+00 0. -1.
<mgrwt>
<rscale>  0 0.71532274E+02</rscale>
<asrwt>0</asrwt>
<pdfrwt beam="1">  1        2 0.89389239E-01 0.53967875E+02</pdfrwt>
<pdfrwt beam="2">  1        2 0.17127124E+00 0.94813187E+02</pdfrwt>
<totfact> 0.20130328E+02</totfact>
</mgrwt>
</event>
<event>
13    1  0.1595792E-008  0.4072097E+02  0.7546771E-02  0.1520496E+00
          2   -1    0    0  502    0  0.00000000000E+00  0.00000000000E+00  0.17962899374E+04  0.17962899374E+04  0.00000000000E+00 0. -1.
          2   -1    0    0  503    0 -0.00000000000E+00 -0.00000000000E+00 -0.32903684616E+04  0.32903684616E+04  0.00000000000E+00 0. -1.
         24    2    1    2    0    0  0.71023769531E+02 -0.35413002293E+03 -0.80780178719E+03  0.88922615714E+03  0.87903254650E+02 0.  0.
         25    2    1    2    0    0 -0.43850161640E+03  0.16095351662E+03 -0.62197810391E+03  0.78782733384E+03  0.12500177644E+03 0.  0.
         24    2    1    2    0    0  0.38370807152E+03  0.18173708023E+03  0.30563945589E+02  0.43302363799E+03  0.79467388328E+02 0.  0.
        -13    1    3    3    0    0 -0.17319085361E+02 -0.66969135527E+02 -0.19107213247E+03  0.20320771550E+03  0.00000000000E+00 0.  1.
         14    1    3    3    0    0  0.88342854893E+02 -0.28716088740E+03 -0.61672965472E+03  0.68601844164E+03  0.00000000000E+00 0. -1.
        -13    1    5    5    0    0  0.31581757792E+03  0.14034811630E+03 -0.56694327555E+01  0.34564501839E+03  0.00000000000E+00 0.  1.
         14    1    5    5    0    0  0.67890493602E+02  0.41388963923E+02  0.36233378345E+02  0.87378619596E+02  0.00000000000E+00 0. -1.
          5    1    4    4  501    0  0.61387245284E+01  0.10762807769E+02 -0.26418548476E+02  0.29555907590E+02  0.47000000000E+01 0.  1.
         -5    1    4    4    0  501 -0.44464034092E+03  0.15019070886E+03 -0.59555955543E+03  0.75827142625E+03  0.47000000000E+01 0.  1.
          1    1    1    2  502    0  0.19955666126E+02  0.30167329645E+02  0.14403620077E+04  0.14408160915E+04  0.00000000000E+00 0. -1.
          1    1    1    2  503    0 -0.36185890783E+02 -0.18727903570E+02 -0.15352245863E+04  0.15357651785E+04  0.00000000000E+00 0. -1.
<mgrwt>
<rscale>  0 0.38378289E+02</rscale>
<asrwt>0</asrwt>
<pdfrwt beam="1">  1        2 0.26416029E+00 0.36170380E+02</pdfrwt>
<pdfrwt beam="2">  1        2 0.48387771E+00 0.40720974E+02</pdfrwt>
<totfact> 0.46650643E+00</totfact>
</mgrwt>
</event>
<event>
13    1  0.1595792E-008  0.5225007E+02  0.7546771E-02  0.1442256E+00
          2   -1    0    0  502    0  0.00000000000E+00  0.00000000000E+00  0.21675933812E+04  0.21675933812E+04  0.00000000000E+00 0. -1.
          2   -1    0    0  503    0 -0.00000000000E+00 -0.00000000000E+00 -0.15845223746E+04  0.15845223746E+04  0.00000000000E+00 0. -1.
         24    2    1    2    0    0  0.11897232549E+03 -0.29198210025E+01 -0.73036407523E+03  0.74414850606E+03  0.78500809508E+02 0.  0.
         25    2    1    2    0    0 -0.13127748449E+03 -0.11712893268E+02  0.96350077080E+02  0.20561816141E+03  0.12499808456E+03 0.  0.
         24    2    1    2    0    0 -0.73042547996E+01  0.16481347652E+02  0.24270555343E+02  0.85633946655E+02  0.80119448354E+02 0.  0.
        -13    1    5    5    0    0 -0.25520112004E+02 -0.24679585180E+02  0.19136123661E+02  0.40330500495E+02  0.00000000000E+00 0.  1.
         14    1    5    5    0    0  0.18215857205E+02  0.41160932832E+02  0.51344316817E+01  0.45303446161E+02  0.00000000000E+00 0. -1.
        -13    1    3    3    0    0  0.37448999336E+01  0.23916243037E+02 -0.11696318009E+03  0.11944202131E+03  0.00000000000E+00 0.  1.
         14    1    3    3    0    0  0.11522742556E+03 -0.26836064040E+02 -0.61340089514E+03  0.62470648475E+03  0.00000000000E+00 0. -1.
          5    1    4    4  501    0 -0.89762109570E+02  0.32446372896E+02  0.47489813203E+01  0.95679915615E+02  0.47000000000E+01 0. -1.
         -5    1    4    4    0  501 -0.41515374921E+02 -0.44159266164E+02  0.91601095760E+02  0.10993824579E+03  0.47000000000E+01 0. -1.
          1    1    1    2  502    0  0.22872162754E+02  0.46999435086E+02  0.19536284845E+04  0.19543275924E+04  0.00000000000E+00 0. -1.
          1    1    1    2  503    0 -0.32627489567E+01 -0.48848068468E+02 -0.76081403510E+03  0.76238754931E+03  0.00000000000E+00 0. -1.
<mgrwt>
<rscale>  0 0.50576693E+02</rscale>
<asrwt>0</asrwt>
<pdfrwt beam="1">  1        2 0.31876373E+00 0.52250066E+02</pdfrwt>
<pdfrwt beam="2">  1        2 0.23301800E+00 0.48956913E+02</pdfrwt>
<totfact> 0.19758399E+01</totfact>
</mgrwt>
</event>
<event>
13    1  0.1595792E-008  0.2188394E+03  0.7546771E-02  0.1440517E+00
          2   -1    0    0  503    0  0.00000000000E+00  0.00000000000E+00  0.33171189462E+04  0.33171189462E+04  0.00000000000E+00 0. -1.
         -1   -1    0    0    0  501 -0.00000000000E+00 -0.00000000000E+00 -0.61441432335E+03  0.61441432335E+03  0.00000000000E+00 0.  1.
         24    2    1    2    0    0  0.55039620054E+02 -0.72360687579E+02 -0.53423800590E+02  0.13399742153E+03  0.82678761623E+02 0.  0.
         25    2    1    2    0    0  0.87712370777E+02  0.18952863986E+03 -0.63808766484E+02  0.25162809072E+03  0.12502228618E+03 0.  0.
         24    2    1    2    0    0 -0.12259551560E+03  0.10109774584E+03  0.33496843858E+03  0.37912711422E+03  0.79266002970E+02 0.  0.
        -11    1    3    3    0    0 -0.15655561804E+02  0.49232292746E+00  0.55233159887E+01  0.16608612729E+02  0.00000000000E+00 0.  1.
         12    1    3    3    0    0  0.70695181858E+02 -0.72853010506E+02 -0.58947116579E+02  0.11738880880E+03  0.00000000000E+00 0. -1.
        -13    1    5    5    0    0 -0.39799234024E+02 -0.15216351942E+01  0.42149821299E+02  0.57990532315E+02  0.00000000000E+00 0.  1.
         14    1    5    5    0    0 -0.82796281578E+02  0.10261938103E+03  0.29281861728E+03  0.32113658190E+03  0.00000000000E+00 0. -1.
          5    1    4    4  502    0  0.37173887775E+02  0.26183732864E+02  0.31787670850E+02  0.55677929353E+02  0.47000000000E+01 0.  1.
         -5    1    4    4    0  502  0.50538483002E+02  0.16334490700E+03 -0.95596437334E+02  0.19595016136E+03  0.47000000000E+01 0.  1.
          1    1    1    2  503    0 -0.31929928077E+02 -0.21699807162E+03  0.28215144112E+04  0.28300267236E+04  0.00000000000E+00 0. -1.
         -2    1    1    2    0  501  0.11773452849E+02 -0.12676265062E+01 -0.33654565992E+03  0.33675391948E+03  0.00000000000E+00 0.  1.
<mgrwt>
<rscale>  0 0.50905664E+02</rscale>
<asrwt>0</asrwt>
<pdfrwt beam="1">  1        2 0.48781160E+00 0.21883943E+03</pdfrwt>
<pdfrwt beam="2">  1       -1 0.90355049E-01 0.11841498E+02</pdfrwt>
<totfact> 0.27637021E+00</totfact>
</mgrwt>
</event>
<event>
13    1  0.1595792E-008  0.6015971E+02  0.7546771E-02  0.1566089E+00
          2   -1    0    0  502    0  0.00000000000E+00  0.00000000000E+00  0.25727956381E+04  0.25727956381E+04  0.00000000000E+00 0. -1.
          2   -1    0    0  503    0 -0.00000000000E+00 -0.00000000000E+00 -0.23255430966E+04  0.23255430966E+04  0.00000000000E+00 0. -1.
         24    2    1    2    0    0  0.84810097540E+03 -0.67930086850E+03 -0.55732614998E+03  0.12259262642E+04  0.10750736389E+03 0.  0.
         25    2    1    2    0    0 -0.90600958676E+03  0.41813203934E+03 -0.72195786432E+03  0.12379565428E+04  0.12500188128E+03 0.  0.
         24    2    1    2    0    0  0.94686710475E+02  0.29209917063E+03  0.89960272999E+02  0.33015996135E+03  0.81395643228E+02 0.  0.
        -11    1    3    3    0    0  0.27469135151E+03 -0.27647390197E+03 -0.22934340971E+03  0.45220742656E+03  0.00000000000E+00 0.  1.
         12    1    3    3    0    0  0.57340962389E+03 -0.40282696653E+03 -0.32798274027E+03  0.77371883760E+03  0.00000000000E+00 0. -1.
        -11    1    5    5    0    0  0.68848682064E+02  0.97414881203E+02  0.16244895303E+02  0.12038977002E+03  0.00000000000E+00 0.  1.
         12    1    5    5    0    0  0.25838028411E+02  0.19468428943E+03  0.73715377695E+02  0.20977019133E+03  0.00000000000E+00 0. -1.
          5    1    4    4  501    0 -0.47550484109E+03  0.28748688894E+03 -0.39288436891E+03  0.68053933210E+03  0.47000000000E+01 0. -1.
         -5    1    4    4    0  501 -0.43050474567E+03  0.13064515040E+03 -0.32907349541E+03  0.55741721067E+03  0.47000000000E+01 0. -1.
          1    1    1    2  502    0  0.17533463368E+02 -0.49496661454E+01  0.17676745322E+04  0.17677684162E+04  0.00000000000E+00 0. -1.
          1    1    1    2  503    0 -0.54311562480E+02 -0.25980675324E+02 -0.33109824944E+03  0.33652755027E+03  0.00000000000E+00 0. -1.
<mgrwt>
<rscale>  0 0.33106381E+02</rscale>
<asrwt>0</asrwt>
<pdfrwt beam="1">  1        2 0.37835230E+00 0.18218714E+02</pdfrwt>
<pdfrwt beam="2">  1        2 0.34199163E+00 0.60159707E+02</pdfrwt>
<totfact> 0.65577477E+00</totfact>
</mgrwt>
</event>
<event>
13    1  0.1595792E-008  0.1086175E+03  0.7546771E-02  0.1315383E+00
          4   -1    0    0  503    0 -0.00000000000E+00  0.00000000000E+00  0.18705044964E+04  0.18705044964E+04  0.00000000000E+00 0. -1.
          2   -1    0    0  502    0  0.00000000000E+00 -0.00000000000E+00 -0.29604698678E+04  0.29604698678E+04  0.00000000000E+00 0. -1.
         24    2    1    2    0    0 -0.36775512151E+02 -0.11349094222E+02  0.52691900335E+03  0.53427426411E+03  0.79524291718E+02 0.  0.
         25    2    1    2    0    0 -0.32331859559E+02 -0.14884370960E+03  0.72417066951E+03  0.75049786971E+03  0.12499637923E+03 0.  0.
         24    2    1    2    0    0 -0.33520863803E+02  0.22606421291E+02 -0.18413369278E+03  0.20557508389E+03  0.81982923235E+02 0.  0.
        -13    1    3    3    0    0 -0.37988119158E+01  0.22211860149E+02  0.47743730741E+02  0.52794521764E+02  0.00000000000E+00 0.  1.
         14    1    3    3    0    0 -0.32976700235E+02 -0.33560954371E+02  0.47917527261E+03  0.48147974235E+03  0.00000000000E+00 0. -1.
        -13    1    5    5    0    0 -0.30468917356E+02  0.33488389689E+01 -0.12935348239E+02  0.33269999719E+02  0.00000000000E+00 0.  1.
         14    1    5    5    0    0 -0.30519464473E+01  0.19257582322E+02 -0.17119834455E+03  0.17230508417E+03  0.00000000000E+00 0. -1.
          5    1    4    4  501    0 -0.52701562963E+02 -0.67098587322E+01  0.20287701083E+03  0.20977046615E+03  0.47000000000E+01 0.  1.
         -5    1    4    4    0  501  0.20369703404E+02 -0.14213385087E+03  0.52129365868E+03  0.54072740356E+03  0.47000000000E+01 0.  1.
          1    1    1    2  502    0  0.44138296099E+02  0.10584499116E+03 -0.27457028855E+04  0.27480967390E+04  0.00000000000E+00 0. -1.
          3    1    1    2  503    0  0.58489939413E+02  0.31741391366E+02  0.58878153409E+03  0.59253040751E+03  0.00000000000E+00 0. -1.
<mgrwt>
<rscale>  0 0.85019032E+02</rscale>
<asrwt>0</asrwt>
<pdfrwt beam="2">  1        2 0.43536321E+00 0.10861746E+03</pdfrwt>
<pdfrwt beam="1">  1        4 0.27507420E+00 0.66547644E+02</pdfrwt>
<totfact> 0.87074205E-02</totfact>
</mgrwt>
</event>
<event>
13    1  0.1595792E-008  0.9184659E+02  0.7546771E-02  0.1320680E+00
          2   -1    0    0  503    0  0.00000000000E+00  0.00000000000E+00  0.22263164704E+04  0.22263164704E+04  0.00000000000E+00 0. -1.
          2   -1    0    0  502    0 -0.00000000000E+00 -0.00000000000E+00 -0.18034645815E+04  0.18034645815E+04  0.00000000000E+00 0. -1.
         24    2    1    2    0    0  0.27304053460E+03  0.23409108567E+03 -0.40351435662E+03  0.54699737378E+03  0.83860127559E+02 0.  0.
         25    2    1    2    0    0 -0.31836819447E+03 -0.34796882439E+03  0.61498556009E+03  0.78503061865E+03  0.12500089242E+03 0.  0.
         24    2    1    2    0    0  0.66920919941E+02  0.84795606671E+02  0.28417036432E+03  0.30831011139E+03  0.51318850229E+02 0.  0.
        -11    1    3    3    0    0  0.20678049142E+03  0.12631257899E+03 -0.25176978931E+03  0.34942962962E+03  0.00000000000E+00 0.  1.
         12    1    3    3    0    0  0.66260043177E+02  0.10777850669E+03 -0.15174456731E+03  0.19756774416E+03  0.00000000000E+00 0. -1.
        -11    1    5    5    0    0 -0.49679300756E+01  0.19708865025E+02  0.29711459402E+02  0.35998479269E+02  0.00000000000E+00 0.  1.
         12    1    5    5    0    0  0.71888850017E+02  0.65086741646E+02  0.25445890492E+03  0.27231163212E+03  0.00000000000E+00 0. -1.
          5    1    4    4  501    0 -0.20077652388E+03 -0.15034179903E+03  0.25409080688E+03  0.35706875699E+03  0.47000000000E+01 0.  1.
         -5    1    4    4    0  501 -0.11759167060E+03 -0.19762702536E+03  0.36089475321E+03  0.42796186167E+03  0.47000000000E+01 0.  1.
          1    1    1    2  502    0  0.70421605693E+02  0.25948754913E+02 -0.12281395288E+04  0.12304305110E+04  0.00000000000E+00 0. -1.
          1    1    1    2  503    0 -0.92014865763E+02  0.31333771284E+01  0.11553498499E+04  0.11590124370E+04  0.00000000000E+00 0. -1.
<mgrwt>
<rscale>  0 0.83024753E+02</rscale>
<asrwt>0</asrwt>
<pdfrwt beam="1">  1        2 0.32739948E+00 0.91846589E+02</pdfrwt>
<pdfrwt beam="2">  1        2 0.26521538E+00 0.75050253E+02</pdfrwt>
<totfact> 0.13114963E+01</totfact>
</mgrwt>
</event>
<event>
13    1  0.1595792E-008  0.1271560E+03  0.7546771E-02  0.1377634E+00
          2   -1    0    0  503    0  0.00000000000E+00  0.00000000000E+00  0.22031280990E+04  0.22031280990E+04  0.00000000000E+00 0. -1.
          2   -1    0    0  502    0 -0.00000000000E+00 -0.00000000000E+00 -0.46343825814E+03  0.46343825814E+03  0.00000000000E+00 0. -1.
         24    2    1    2    0    0 -0.15191962254E+03 -0.44890001461E+02 -0.13282510544E+03  0.22210772845E+03  0.81207453210E+02 0.  0.
         25    2    1    2    0    0  0.21853557577E+03 -0.16362745569E+03  0.39593735315E+01  0.30028840710E+03  0.12500283463E+03 0.  0.
         24    2    1    2    0    0 -0.72899462999E+01  0.30754026589E+02  0.30065470106E+03  0.31272957048E+03  0.80047370427E+02 0.  0.
        -11    1    3    3    0    0 -0.72515955920E+02  0.19758827332E+02 -0.48378003853E+02  0.89383479331E+02  0.00000000000E+00 0.  1.
         12    1    3    3    0    0 -0.79403666623E+02 -0.64648828793E+02 -0.84447101586E+02  0.13272424912E+03  0.00000000000E+00 0. -1.
        -13    1    5    5    0    0  0.34610909555E+02  0.25415488978E+01  0.14444990061E+03  0.14856025147E+03  0.00000000000E+00 0.  1.
         14    1    5    5    0    0 -0.41900855855E+02  0.28212477691E+02  0.15620480045E+03  0.16416931900E+03  0.00000000000E+00 0. -1.
          5    1    4    4  501    0  0.22757049347E+03 -0.16504363474E+03  0.19301058249E+02  0.28181971492E+03  0.47000000000E+01 0. -1.
         -5    1    4    4    0  501 -0.90349176989E+01  0.14161790480E+01 -0.15341684718E+02  0.18468692182E+02  0.47000000000E+01 0. -1.
          1    1    1    2  502    0 -0.22047215743E+02  0.24981041257E+02 -0.12596138998E+03  0.13029352981E+03  0.00000000000E+00 0. -1.
          1    1    1    2  503    0 -0.37278791188E+02  0.15278238931E+03  0.16938622617E+04  0.17011471213E+04  0.00000000000E+00 0. -1.
<mgrwt>
<rscale>  0 0.65089675E+02</rscale>
<asrwt>0</asrwt>
<pdfrwt beam="1">  1        2 0.32398942E+00 0.12715600E+03</pdfrwt>
<pdfrwt beam="2">  1        2 0.68152686E-01 0.33318646E+02</pdfrwt>
<totfact> 0.80169576E+01</totfact>
</mgrwt>
</event>
<event>
13    1  0.1595792E-008  0.6941644E+02  0.7546771E-02  0.1598176E+00
          2   -1    0    0  503    0  0.00000000000E+00  0.00000000000E+00  0.26213734771E+04  0.26213734771E+04  0.00000000000E+00 0. -1.
          2   -1    0    0  502    0 -0.00000000000E+00 -0.00000000000E+00 -0.18943394574E+04  0.18943394574E+04  0.00000000000E+00 0. -1.
         24    2    1    2    0    0 -0.40201064852E+02 -0.13881669852E+02 -0.13789273870E+03  0.15421591069E+03  0.54399571240E+02 0.  0.
         25    2    1    2    0    0 -0.36701975595E+02 -0.87439080978E+03  0.11447909229E+04  0.14464013370E+04  0.12499698915E+03 0.  0.
         24    2    1    2    0    0  0.28376519981E+02  0.81955707504E+03  0.10984977409E+04  0.13732888933E+04  0.82134473673E+02 0.  0.
        -11    1    5    5    0    0 -0.19215507475E+02  0.54505436866E+03  0.71420258948E+03  0.89863164831E+03  0.00000000000E+00 0.  1.
         12    1    5    5    0    0  0.47592027456E+02  0.27450270637E+03  0.38429515137E+03  0.47465724502E+03  0.00000000000E+00 0. -1.
        -13    1    3    3    0    0 -0.23922992507E-03 -0.18986628097E+02 -0.87572627244E+02  0.89607237927E+02  0.00000000000E+00 0.  1.
         14    1    3    3    0    0 -0.40200825622E+02  0.51049582453E+01 -0.50320111456E+02  0.64608672764E+02  0.00000000000E+00 0. -1.
          5    1    4    4  501    0 -0.29685625796E+01 -0.81898990096E+03  0.10602217863E+04  0.13397184765E+04  0.47000000000E+01 0.  1.
         -5    1    4    4    0  501 -0.33733413015E+02 -0.55400908820E+02  0.84569136542E+02  0.10668286042E+03  0.47000000000E+01 0.  1.
          1    1    1    2  502    0  0.43567885166E+02  0.80687564527E+02 -0.14581211728E+04  0.14610017106E+04  0.00000000000E+00 0. -1.
          1    1    1    2  503    0  0.49586352999E+01 -0.11972159933E+02  0.79759267531E+02  0.80805082975E+02  0.00000000000E+00 0. -1.
<mgrwt>
<rscale>  0 0.29992122E+02</rscale>
<asrwt>0</asrwt>
<pdfrwt beam="1">  1        2 0.38549610E+00 0.12958421E+02</pdfrwt>
<pdfrwt beam="2">  1        2 0.27857933E+00 0.69416436E+02</pdfrwt>
<totfact> 0.10420385E+01</totfact>
</mgrwt>
</event>
<event>
13    1  0.1595792E-008  0.9677110E+02  0.7546771E-02  0.1294701E+00
          2   -1    0    0  502    0  0.00000000000E+00  0.00000000000E+00  0.20951050447E+04  0.20951050447E+04  0.00000000000E+00 0. -1.
          2   -1    0    0  503    0 -0.00000000000E+00 -0.00000000000E+00 -0.15299968633E+04  0.15299968633E+04  0.00000000000E+00 0. -1.
         24    2    1    2    0    0  0.17756930958E+03  0.68384337079E+02 -0.32691341009E+02  0.20840080889E+03  0.78453145928E+02 0.  0.
         25    2    1    2    0    0 -0.18985602942E+03 -0.40617497208E+02 -0.28959447925E+03  0.37038456050E+03  0.12499866904E+03 0.  0.
         24    2    1    2    0    0 -0.13094220689E+02 -0.15415683298E+02  0.35345469311E+03  0.36319608944E+03  0.81068350163E+02 0.  0.
        -13    1    5    5    0    0 -0.21189315478E+01  0.29692457374E+02  0.21763659001E+03  0.21966296276E+03  0.00000000000E+00 0.  1.
         14    1    5    5    0    0 -0.10975289142E+02 -0.45108140672E+02  0.13581810309E+03  0.14353312668E+03  0.00000000000E+00 0. -1.
        -13    1    3    3    0    0  0.14526996999E+03  0.22036070214E+02 -0.92026557878E+01  0.14721970467E+03  0.00000000000E+00 0.  1.
         14    1    3    3    0    0  0.32299339591E+02  0.46348266865E+02 -0.23488685221E+02  0.61181104213E+02  0.00000000000E+00 0. -1.
          5    1    4    4  501    0 -0.13321004116E+03 -0.20243366689E+02 -0.90610748846E+02  0.16244108706E+03  0.47000000000E+01 0.  1.
         -5    1    4    4    0  501 -0.56645988260E+02 -0.20374130519E+02 -0.19898373040E+03  0.20794347344E+03  0.47000000000E+01 0.  1.
          1    1    1    2  502    0  0.10402890809E+03  0.46702481568E+02  0.16042514767E+04  0.16082990817E+04  0.00000000000E+00 0. -1.
          1    1    1    2  503    0 -0.78647967563E+02 -0.59053638141E+02 -0.10703121682E+04  0.10748213676E+04  0.00000000000E+00 0. -1.
<mgrwt>
<rscale>  0 0.93452132E+02</rscale>
<asrwt>0</asrwt>
<pdfrwt beam="1">  1        2 0.30810368E+00 0.90246993E+02</pdfrwt>
<pdfrwt beam="2">  1        2 0.22499954E+00 0.96771101E+02</pdfrwt>
<totfact> 0.20149793E+01</totfact>
</mgrwt>
</event>
<event>
13    1  0.1595792E-008  0.1079186E+03  0.7546771E-02  0.1437630E+00
          2   -1    0    0  502    0  0.00000000000E+00  0.00000000000E+00  0.13411269089E+04  0.13411269089E+04  0.00000000000E+00 0. -1.
          2   -1    0    0  503    0 -0.00000000000E+00 -0.00000000000E+00 -0.30752129256E+04  0.30752129256E+04  0.00000000000E+00 0. -1.
         24    2    1    2    0    0  0.14703283552E+03  0.10493050694E+03 -0.56378955850E+02  0.21261216818E+03  0.96934417979E+02 0.  0.
         25    2    1    2    0    0 -0.41208349653E+03  0.17119718485E+03  0.10054804236E+03  0.47419162019E+03  0.12500599834E+03 0.  0.
         24    2    1    2    0    0  0.17689935911E+03 -0.26443302439E+03 -0.10418238900E+03  0.34447910760E+03  0.81201464009E+02 0.  0.
        -13    1    5    5    0    0  0.44166076315E+02 -0.76895476216E+02  0.75434670654E+01  0.88996968796E+02  0.00000000000E+00 0.  1.
         14    1    5    5    0    0  0.13273328279E+03 -0.18753754817E+03 -0.11172585607E+03  0.25548213881E+03  0.00000000000E+00 0. -1.
        -13    1    3    3    0    0  0.43696308305E+02  0.29419471540E+02 -0.65790474456E+02  0.84280835274E+02  0.00000000000E+00 0.  1.
         14    1    3    3    0    0  0.10333652721E+03  0.75511035398E+02  0.94115186060E+01  0.12833133291E+03  0.00000000000E+00 0. -1.
          5    1    4    4  501    0 -0.34386657991E+02  0.46750475784E+02  0.42931772055E+02  0.72341387086E+02  0.47000000000E+01 0. -1.
         -5    1    4    4    0  501 -0.37769683854E+03  0.12444670907E+03  0.57616270302E+02  0.40185023310E+03  0.47000000000E+01 0. -1.
          1    1    1    2  502    0  0.10356544135E+03 -0.30785383852E+02  0.85202094028E+03  0.85884412041E+03  0.00000000000E+00 0. -1.
          1    1    1    2  503    0 -0.15414139441E+02  0.19090716452E+02 -0.25260936545E+04  0.25262128181E+04  0.00000000000E+00 0. -1.
<mgrwt>
<rscale>  0 0.51458424E+02</rscale>
<asrwt>0</asrwt>
<pdfrwt beam="1">  1        2 0.19722455E+00 0.10791859E+03</pdfrwt>
<pdfrwt beam="2">  1        2 0.45223719E+00 0.24536731E+02</pdfrwt>
<totfact> 0.10049790E+01</totfact>
</mgrwt>
</event>
<event>
13    1  0.1595792E-008  0.9032178E+02  0.7546771E-02  0.1349161E+00
         -3   -1    0    0    0  501 -0.00000000000E+00  0.00000000000E+00  0.12013033489E+03  0.12013033489E+03  0.00000000000E+00 0.  1.
          2   -1    0    0  503    0  0.00000000000E+00 -0.00000000000E+00 -0.23131841673E+04  0.23131841673E+04  0.00000000000E+00 0. -1.
         24    2    1    2    0    0  0.55198683705E+02 -0.63263046829E+00 -0.32869377459E+02  0.97883721700E+02  0.73848033793E+02 0.  0.
         25    2    1    2    0    0 -0.10639746346E+03  0.12854216314E+02 -0.21463621690E+03  0.27051344445E+03  0.12499266744E+03 0.  0.
         24    2    1    2    0    0 -0.17301159258E+02  0.85786452979E+02 -0.42991217005E+03  0.44589976164E+03  0.79645953092E+02 0.  0.
        -13    1    5    5    0    0  0.15635853805E+02 -0.56388207762E+01 -0.11898731739E+03  0.12014265655E+03  0.00000000000E+00 0.  1.
         14    1    5    5    0    0 -0.32937013062E+02  0.91425273755E+02 -0.31092485266E+03  0.32575710508E+03  0.00000000000E+00 0. -1.
        -13    1    3    3    0    0  0.64863920082E+02  0.16008942551E+02 -0.39398090395E+02  0.77561742481E+02  0.00000000000E+00 0.  1.
         14    1    3    3    0    0 -0.96652363766E+01 -0.16641573019E+02  0.65287129356E+01  0.20321979219E+02  0.00000000000E+00 0. -1.
          5    1    4    4  502    0 -0.57029349006E+02 -0.79582470661E+01 -0.20853138407E+03  0.21638647945E+03  0.47000000000E+01 0.  1.
         -5    1    4    4    0  502 -0.49368114452E+02  0.20812463380E+02 -0.61048328325E+01  0.54126965003E+02  0.47000000000E+01 0.  1.
          1    1    1    2  503    0  0.24819467137E+02 -0.13843116337E+03 -0.15458764024E+04  0.15522606239E+04  0.00000000000E+00 0. -1.
         -4    1    1    2    0  501  0.43680471874E+02  0.40423124550E+02  0.30240334390E+02  0.66756950541E+02  0.00000000000E+00 0.  1.
<mgrwt>
<rscale>  0 0.73317689E+02</rscale>
<asrwt>0</asrwt>
<pdfrwt beam="2">  1        2 0.34017414E+00 0.90321780E+02</pdfrwt>
<pdfrwt beam="1">  1       -3 0.17666226E-01 0.59514810E+02</pdfrwt>
<totfact> 0.10059597E+02</totfact>
</mgrwt>
</event>
<event>
13    1  0.1595792E-008  0.5960225E+02  0.7546771E-02  0.1463085E+00
          2   -1    0    0  503    0  0.00000000000E+00  0.00000000000E+00  0.74684384416E+03  0.74684384416E+03  0.00000000000E+00 0. -1.
          2   -1    0    0  502    0 -0.00000000000E+00 -0.00000000000E+00 -0.59343913247E+03  0.59343913247E+03  0.00000000000E+00 0. -1.
         24    2    1    2    0    0  0.55784517759E+02 -0.16632798542E+03 -0.23823955912E+03  0.30712344190E+03  0.82400302642E+02 0.  0.
         25    2    1    2    0    0 -0.16012418751E+03  0.48153234047E+02  0.52653117264E+02  0.21531124745E+03  0.12501237197E+03 0.  0.
         24    2    1    2    0    0  0.62526926701E+02  0.31611077140E+02  0.37207637074E+03  0.38607916775E+03  0.75547477434E+02 0.  0.
        -11    1    3    3    0    0  0.19493958657E+02 -0.90300149170E+02 -0.60496846130E+02  0.11042644500E+03  0.00000000000E+00 0.  1.
         12    1    3    3    0    0  0.36290559102E+02 -0.76027836252E+02 -0.17774271299E+03  0.19669699689E+03  0.00000000000E+00 0. -1.
        -13    1    5    5    0    0  0.39956645109E+01  0.11848416172E+02  0.23938754086E+03  0.23971388157E+03  0.00000000000E+00 0.  1.
         14    1    5    5    0    0  0.58531262190E+02  0.19762660968E+02  0.13268882988E+03  0.14636528617E+03  0.00000000000E+00 0. -1.
          5    1    4    4  501    0 -0.57721577557E+02 -0.41942011347E+02  0.92543056555E+01  0.72101629695E+02  0.47000000000E+01 0. -1.
         -5    1    4    4    0  501 -0.10240260996E+03  0.90095245394E+02  0.43398811609E+02  0.14320961776E+03  0.47000000000E+01 0. -1.
          1    1    1    2  502    0  0.24474890427E+02  0.54066053930E+02 -0.22687554327E+03  0.23450942536E+03  0.00000000000E+00 0. -1.
          1    1    1    2  503    0  0.17337852627E+02  0.32497620306E+02  0.19379032609E+03  0.19725969417E+03  0.00000000000E+00 0. -1.
<mgrwt>
<rscale>  0 0.46854574E+02</rscale>
<asrwt>0</asrwt>
<pdfrwt beam="1">  1        2 0.10982998E+00 0.36833361E+02</pdfrwt>
<pdfrwt beam="2">  1        2 0.87270461E-01 0.59602247E+02</pdfrwt>
<totfact> 0.37645264E+02</totfact>
</mgrwt>
</event>
<event>
13    1  0.1595792E-008  0.2559537E+03  0.7546771E-02  0.1259652E+00
         -1   -1    0    0    0  501 -0.00000000000E+00  0.00000000000E+00  0.24525246504E+04  0.24525246504E+04  0.00000000000E+00 0.  1.
          2   -1    0    0  503    0  0.00000000000E+00 -0.00000000000E+00 -0.14786514504E+04  0.14786514504E+04  0.00000000000E+00 0. -1.
         24    2    1    2    0    0 -0.20268658735E+03  0.15505596794E+03  0.23444643273E+03  0.35601277595E+03  0.81582847074E+02 0.  0.
         25    2    1    2    0    0  0.35104304478E+03 -0.45470382187E+03 -0.88976561311E+03  0.10664403422E+04  0.12500148884E+03 0.  0.
         24    2    1    2    0    0 -0.66971417535E+02  0.26734865774E+02 -0.15390481520E+03  0.18788018807E+03  0.80077144769E+02 0.  0.
        -11    1    3    3    0    0 -0.14494347549E+03  0.14153002367E+03  0.21023274278E+03  0.29195404574E+03  0.00000000000E+00 0.  1.
         12    1    3    3    0    0 -0.57743111862E+02  0.13525944270E+02  0.24213689955E+02  0.64058730218E+02  0.00000000000E+00 0. -1.
        -13    1    5    5    0    0 -0.31560499568E+02 -0.76887611372E+01 -0.12810979956E+03  0.13216392444E+03  0.00000000000E+00 0.  1.
         14    1    5    5    0    0 -0.35410917967E+02  0.34423626911E+02 -0.25795015636E+02  0.55716263627E+02  0.00000000000E+00 0. -1.
          5    1    4    4  502    0  0.41464132944E+02 -0.62085731713E+02 -0.20748143790E+03  0.22055509397E+03  0.47000000000E+01 0. -1.
         -5    1    4    4    0  502  0.30957891184E+03 -0.39261809015E+03 -0.68228417521E+03  0.84588524819E+03  0.47000000000E+01 0. -1.
          1    1    1    2  503    0 -0.43160409733E+02  0.20315290624E+02 -0.25873226845E+03  0.26309298497E+03  0.00000000000E+00 0. -1.
         -2    1    1    2    0  501 -0.38224630167E+02  0.25259769753E+03  0.20418294640E+04  0.20577498097E+04  0.00000000000E+00 0.  1.
<mgrwt>
<rscale>  0 0.11049725E+03</rscale>
<asrwt>0</asrwt>
<pdfrwt beam="2">  1        2 0.21744874E+00 0.47702537E+02</pdfrwt>
<pdfrwt beam="1">  1       -1 0.36066539E+00 0.25595373E+03</pdfrwt>
<totfact> 0.32293417E-01</totfact>
</mgrwt>
</event>
<event>
13    1  0.1595792E-008  0.2323481E+03  0.7546771E-02  0.1164630E+00
          2   -1    0    0  503    0  0.00000000000E+00  0.00000000000E+00  0.28042677940E+04  0.28042677940E+04  0.00000000000E+00 0. -1.
          2   -1    0    0  502    0 -0.00000000000E+00 -0.00000000000E+00 -0.24982670892E+04  0.24982670892E+04  0.00000000000E+00 0. -1.
         24    2    1    2    0    0 -0.89846077900E+02  0.80257611307E+02 -0.61739953444E+02  0.15862080477E+03  0.82674881118E+02 0.  0.
         25    2    1    2    0    0 -0.26656377630E+03 -0.69504093221E+03 -0.64525266590E+03  0.99303271174E+03  0.12499927784E+03 0.  0.
         24    2    1    2    0    0  0.12979364987E+03  0.31561307498E+03  0.44297361696E+03  0.56469181463E+03  0.78696985581E+02 0.  0.
        -13    1    5    5    0    0  0.12205711933E+03  0.31684585846E+03  0.44107751660E+03  0.55663148855E+03  0.00000000000E+00 0.  1.
         14    1    5    5    0    0  0.77365305351E+01 -0.12327834809E+01  0.18961003667E+01  0.80603260747E+01  0.00000000000E+00 0. -1.
        -13    1    3    3    0    0 -0.39974462810E+01  0.38449864892E+01  0.17935977980E+02  0.18773992755E+02  0.00000000000E+00 0.  1.
         14    1    3    3    0    0 -0.85848631619E+02  0.76412624818E+02 -0.79675931424E+02  0.13984681201E+03  0.00000000000E+00 0. -1.
          5    1    4    4  501    0 -0.55589639380E+02 -0.75199644649E+02 -0.41621458084E+02  0.10246770386E+03  0.47000000000E+01 0. -1.
         -5    1    4    4    0  501 -0.21097413692E+03 -0.61984128756E+03 -0.60363120781E+03  0.89056500788E+03  0.47000000000E+01 0. -1.
          1    1    1    2  502    0  0.78923718230E+02  0.12120254717E+03 -0.14981570086E+04  0.15051223980E+04  0.00000000000E+00 0. -1.
          1    1    1    2  503    0  0.14769248611E+03  0.17796769876E+03  0.20681767157E+04  0.20810671540E+04  0.00000000000E+00 0. -1.
<mgrwt>
<rscale>  0 0.18331789E+03</rscale>
<asrwt>0</asrwt>
<pdfrwt beam="1">  1        2 0.41239233E+00 0.23234809E+03</pdfrwt>
<pdfrwt beam="2">  1        2 0.36739222E+00 0.14463406E+03</pdfrwt>
<totfact> 0.25416594E+00</totfact>
</mgrwt>
</event>
<event>
13    1  0.1595792E-008  0.9035624E+02  0.7546771E-02  0.1340570E+00
         -1   -1    0    0    0  501 -0.00000000000E+00  0.00000000000E+00  0.64373878774E+03  0.64373878774E+03  0.00000000000E+00 0.  1.
          2   -1    0    0  503    0  0.00000000000E+00 -0.00000000000E+00 -0.17117797853E+04  0.17117797853E+04  0.00000000000E+00 0. -1.
         24    2    1    2    0    0  0.19371982773E+03  0.24707700738E+03 -0.49235963981E+03  0.58939934733E+03  0.79994727860E+02 0.  0.
         25    2    1    2    0    0 -0.14930071481E+03 -0.84881743537E+02 -0.18490796190E+03  0.28162277410E+03  0.12499927474E+03 0.  0.
         24    2    1    2    0    0 -0.77787404216E+02 -0.96797351576E+02 -0.46945955228E+03  0.49294872495E+03  0.84767721899E+02 0.  0.
        -11    1    5    5    0    0 -0.34261347672E+02  0.91145705871E+01 -0.12679305179E+03  0.13165634555E+03  0.00000000000E+00 0.  1.
         12    1    5    5    0    0 -0.43526056545E+02 -0.10591192216E+03 -0.34266650049E+03  0.36129237940E+03  0.00000000000E+00 0. -1.
        -13    1    3    3    0    0  0.56325356434E+02  0.79067558959E+02 -0.90716933170E+02  0.13286755293E+03  0.00000000000E+00 0.  1.
         14    1    3    3    0    0  0.13739447129E+03  0.16800944842E+03 -0.40164270664E+03  0.45653179440E+03  0.00000000000E+00 0. -1.
          5    1    4    4  502    0 -0.13285026770E+03 -0.10716096344E+03 -0.11387470075E+03  0.20523694400E+03  0.47000000000E+01 0. -1.
         -5    1    4    4    0  502 -0.16450447118E+02  0.22279219899E+02 -0.71033261151E+02  0.76385830096E+02  0.47000000000E+01 0. -1.
          1    1    1    2  503    0  0.60549658768E+02  0.20894738201E+02 -0.45032415868E+03  0.45485678972E+03  0.00000000000E+00 0. -1.
         -2    1    1    2    0  501 -0.27181367464E+02 -0.86292650468E+02  0.52901031513E+03  0.53669093693E+03  0.00000000000E+00 0.  1.
<mgrwt>
<rscale>  0 0.76076497E+02</rscale>
<asrwt>0</asrwt>
<pdfrwt beam="2">  1        2 0.25173232E+00 0.64053503E+02</pdfrwt>
<pdfrwt beam="1">  1       -1 0.94667469E-01 0.90356236E+02</pdfrwt>
<totfact> 0.18014478E+01</totfact>
</mgrwt>
</event>
<event>
13    1  0.1595792E-008  0.6785936E+02  0.7546771E-02  0.1441131E+00
          2   -1    0    0  503    0  0.00000000000E+00  0.00000000000E+00  0.43577654121E+04  0.43577654121E+04  0.00000000000E+00 0. -1.
          2   -1    0    0  502    0 -0.00000000000E+00 -0.00000000000E+00 -0.52762380273E+03  0.52762380273E+03  0.00000000000E+00 0. -1.
         24    2    1    2    0    0 -0.17891532270E+02 -0.14657433707E+02 -0.41627671363E+02  0.94463127833E+02  0.81581077506E+02 0.  0.
         25    2    1    2    0    0 -0.52427904421E+01 -0.79505856946E+02  0.54200259342E+03  0.56190852115E+03  0.12500282689E+03 0.  0.
         24    2    1    2    0    0  0.59330068451E+01  0.80906253199E+01  0.47448783042E+03  0.48159056835E+03  0.81793126380E+02 0.  0.
        -11    1    5    5    0    0  0.24147089421E+02  0.38640874569E+02  0.22373189227E+03  0.22832467832E+03  0.00000000000E+00 0.  1.
         12    1    5    5    0    0 -0.18214082576E+02 -0.30550249249E+02  0.25075593815E+03  0.25326589003E+03  0.00000000000E+00 0. -1.
        -13    1    3    3    0    0 -0.41859840019E+02 -0.12692621832E+02  0.29194471475E+01  0.43839160884E+02  0.00000000000E+00 0.  1.
         14    1    3    3    0    0  0.23968307749E+02 -0.19648118756E+01 -0.44547118511E+02  0.50623966949E+02  0.00000000000E+00 0. -1.
          5    1    4    4  501    0  0.38900850996E+02 -0.45339773707E+02  0.45158696733E+03  0.45554566220E+03  0.47000000000E+01 0. -1.
         -5    1    4    4    0  501 -0.44143641438E+02 -0.34166083239E+02  0.90415626087E+02  0.10636285895E+03  0.47000000000E+01 0. -1.
          1    1    1    2  502    0  0.39398700603E+02  0.55214011191E+02 -0.44338540767E+03  0.44854371512E+03  0.00000000000E+00 0. -1.
          1    1    1    2  503    0 -0.22197384736E+02  0.30858654142E+02  0.32986642646E+04  0.32988832824E+04  0.00000000000E+00 0. -1.
<mgrwt>
<rscale>  0 0.50789083E+02</rscale>
<asrwt>0</asrwt>
<pdfrwt beam="1">  1        2 0.64084784E+00 0.38012898E+02</pdfrwt>
<pdfrwt beam="2">  1        2 0.77591738E-01 0.67859359E+02</pdfrwt>
<totfact> 0.51021976E+00</totfact>
</mgrwt>
</event>
<event>
13    1  0.1595792E-008  0.4522179E+02  0.7546771E-02  0.1616986E+00
          2   -1    0    0  502    0  0.00000000000E+00  0.00000000000E+00  0.76853754662E+03  0.76853754662E+03  0.00000000000E+00 0. -1.
          2   -1    0    0  503    0 -0.00000000000E+00 -0.00000000000E+00 -0.87570127045E+03  0.87570127045E+03  0.00000000000E+00 0. -1.
         24    2    1    2    0    0 -0.15907654363E+03  0.63961837805E+01 -0.38311191913E+02  0.18255224331E+03  0.80692727119E+02 0.  0.
         25    2    1    2    0    0  0.17069982327E+03 -0.65884224648E+02  0.25957619951E+03  0.34129777693E+03  0.12500083385E+03 0.  0.
         24    2    1    2    0    0  0.14001282453E+01  0.34219784610E+02  0.37446301541E+02  0.96894901502E+02  0.82543578915E+02 0.  0.
        -11    1    3    3    0    0  0.52321146723E+01  0.41184349734E+01  0.93287844913E+01  0.11461359023E+02  0.00000000000E+00 0.  1.
         12    1    3    3    0    0 -0.16430865830E+03  0.22777488071E+01 -0.47639976404E+02  0.17109088428E+03  0.00000000000E+00 0. -1.
        -13    1    5    5    0    0  0.13063648934E+02 -0.65398983119E+01  0.50471649668E+02  0.52543473559E+02  0.00000000000E+00 0.  1.
         14    1    5    5    0    0 -0.11663520689E+02  0.40759682922E+02 -0.13025348128E+02  0.44351427943E+02  0.00000000000E+00 0. -1.
          5    1    4    4  501    0  0.30266631820E+02  0.25180019312E+02  0.10944974873E+03  0.11641065189E+03  0.47000000000E+01 0. -1.
         -5    1    4    4    0  501  0.14043319145E+03 -0.91064243960E+02  0.15012645078E+03  0.22488712505E+03  0.47000000000E+01 0. -1.
          1    1    1    2  502    0 -0.14504099032E+02  0.42988966937E+02  0.32712977702E+03  0.33026097436E+03  0.00000000000E+00 0. -1.
          1    1    1    2  503    0  0.14806911498E+01 -0.17720710680E+02 -0.69300481000E+03  0.69323292097E+03  0.00000000000E+00 0. -1.
<mgrwt>
<rscale>  0 0.28357626E+02</rscale>
<asrwt>0</asrwt>
<pdfrwt beam="1">  1        2 0.11302023E+00 0.45221795E+02</pdfrwt>
<pdfrwt beam="2">  1        2 0.12877960E+00 0.17782464E+02</pdfrwt>
<totfact> 0.24399156E+02</totfact>
</mgrwt>
</event>
<event>
13    1  0.1595792E-008  0.4050617E+02  0.7546771E-02  0.1721082E+00
          2   -1    0    0  503    0  0.00000000000E+00  0.00000000000E+00  0.17892095572E+04  0.17892095572E+04  0.00000000000E+00 0. -1.
         -1   -1    0    0    0  501 -0.00000000000E+00 -0.00000000000E+00 -0.69813482857E+03  0.69813482857E+03  0.00000000000E+00 0.  1.
         24    2    1    2    0    0 -0.18489257288E+02  0.51973239901E+02 -0.52413613789E+03  0.53206703952E+03  0.73031316642E+02 0.  0.
         25    2    1    2    0    0  0.10783951772E+02 -0.89542575625E+01  0.10760508047E+03  0.16552611230E+03  0.12499427253E+03 0.  0.
         24    2    1    2    0    0  0.10866272856E+01 -0.10312343968E+02  0.58506208179E+03  0.59091206209E+03  0.82291557089E+02 0.  0.
        -13    1    3    3    0    0  0.24524834833E+02  0.44405427247E+01 -0.97183726738E+02  0.10032877297E+03  0.00000000000E+00 0.  1.
         14    1    3    3    0    0 -0.43014092121E+02  0.47532697176E+02 -0.42695241115E+03  0.43173826655E+03  0.00000000000E+00 0. -1.
        -13    1    5    5    0    0 -0.30958208926E+02  0.21471810626E+02  0.28288872894E+03  0.28538654894E+03  0.00000000000E+00 0.  1.
         14    1    5    5    0    0  0.32044836212E+02 -0.31784154595E+02  0.30217335285E+03  0.30552551315E+03  0.00000000000E+00 0. -1.
          5    1    4    4  502    0  0.49886161912E+02 -0.32971363768E+02  0.14635621509E+02  0.61741650416E+02  0.47000000000E+01 0. -1.
         -5    1    4    4    0  502 -0.39102210141E+02  0.24017106206E+02  0.92969458959E+02  0.10378446188E+03  0.47000000000E+01 0. -1.
          1    1    1    2  503    0 -0.14029714667E+01 -0.40487426999E+02  0.10600778939E+04  0.10608517056E+04  0.00000000000E+00 0. -1.
         -2    1    1    2    0  501  0.80216496972E+01  0.77807886288E+01 -0.13753418964E+03  0.13798746630E+03  0.00000000000E+00 0.  1.
<mgrwt>
<rscale>  0 0.21276018E+02</rscale>
<asrwt>0</asrwt>
<pdfrwt beam="1">  1        2 0.26311905E+00 0.40506167E+02</pdfrwt>
<pdfrwt beam="2">  1       -1 0.10266689E+00 0.11175309E+02</pdfrwt>
<totfact> 0.15862463E+01</totfact>
</mgrwt>
</event>
<event>
13    1  0.1595792E-008  0.3284400E+03  0.7546771E-02  0.1198868E+00
          2   -1    0    0  503    0  0.00000000000E+00  0.00000000000E+00  0.43511062418E+04  0.43511062418E+04  0.00000000000E+00 0. -1.
          2   -1    0    0  502    0 -0.00000000000E+00 -0.00000000000E+00 -0.23272054546E+04  0.23272054546E+04  0.00000000000E+00 0. -1.
         24    2    1    2    0    0 -0.77711019684E+02  0.27645475982E+03 -0.42842132484E+03  0.52169284057E+03  0.78436927022E+02 0.  0.
         25    2    1    2    0    0  0.11288710630E+03 -0.76137837584E+02 -0.12862502181E+03  0.22518768876E+03  0.12499851939E+03 0.  0.
         24    2    1    2    0    0  0.14104760321E+03  0.13376187349E+03 -0.49678209303E+02  0.21431022654E+03  0.75327840460E+02 0.  0.
        -11    1    3    3    0    0  0.14899275651E+02  0.67464548312E+02 -0.10107040684E+03  0.12242826811E+03  0.00000000000E+00 0.  1.
         12    1    3    3    0    0 -0.92610295335E+02  0.20899021150E+03 -0.32735091800E+03  0.39926457246E+03  0.00000000000E+00 0. -1.
        -11    1    5    5    0    0  0.57616988997E+02  0.91381136228E+01 -0.10121161014E+02  0.59208617970E+02  0.00000000000E+00 0.  1.
         12    1    5    5    0    0  0.83430614216E+02  0.12462375986E+03 -0.39557048289E+02  0.15510160857E+03  0.00000000000E+00 0. -1.
          5    1    4    4  501    0 -0.14810720530E+02  0.74738432726E+00 -0.58238403623E+02  0.60280325833E+02  0.47000000000E+01 0. -1.
         -5    1    4    4    0  501  0.12769782683E+03 -0.76885221911E+02 -0.70386618190E+02  0.16490736292E+03  0.47000000000E+01 0. -1.
          1    1    1    2  502    0  0.24430991957E+02 -0.65289187723E+02 -0.15357168867E+04  0.15372982493E+04  0.00000000000E+00 0. -1.
          1    1    1    2  503    0 -0.20065468179E+03 -0.26878960799E+03  0.41663422298E+04  0.41798226913E+04  0.00000000000E+00 0. -1.
<mgrwt>
<rscale>  0 0.15131328E+03</rscale>
<asrwt>0</asrwt>
<pdfrwt beam="1">  1        2 0.63986857E+00 0.32843997E+03</pdfrwt>
<pdfrwt beam="2">  1        2 0.34223610E+00 0.69710483E+02</pdfrwt>
<totfact> 0.33595232E-01</totfact>
</mgrwt>
</event>
<event>
13    1  0.1595792E-008  0.2817058E+02  0.7546771E-02  0.1751472E+00
          2   -1    0    0  502    0  0.00000000000E+00  0.00000000000E+00  0.25465981219E+04  0.25465981219E+04  0.00000000000E+00 0. -1.
          2   -1    0    0  503    0 -0.00000000000E+00 -0.00000000000E+00 -0.24581361223E+04  0.24581361223E+04  0.00000000000E+00 0. -1.
         24    2    1    2    0    0 -0.79394838865E+03  0.14291864544E+03 -0.80860295415E+03  0.11450513589E+04  0.80771863924E+02 0.  0.
         25    2    1    2    0    0  0.68812069037E+03  0.40141476658E+03 -0.27473905022E+03  0.85190833916E+03  0.12498949261E+03 0.  0.
         24    2    1    2    0    0  0.11177857212E+03 -0.52893284147E+03  0.15063150889E+04  0.16018713363E+04  0.68863857167E+02 0.  0.
        -11    1    5    5    0    0  0.79814124555E+02 -0.45206415170E+03  0.12125359458E+04  0.12965244739E+04  0.00000000000E+00 0.  1.
         12    1    5    5    0    0  0.31964447567E+02 -0.76868689763E+02  0.29377914316E+03  0.30534686233E+03  0.00000000000E+00 0. -1.
        -13    1    3    3    0    0 -0.46507491924E+03  0.47158266013E+02 -0.44219035705E+03  0.64346786589E+03  0.00000000000E+00 0.  1.
         14    1    3    3    0    0 -0.32887346941E+03  0.95760379430E+02 -0.36641259709E+03  0.50158349301E+03  0.00000000000E+00 0. -1.
          5    1    4    4  501    0  0.48951154683E+03  0.21955570148E+03 -0.19759484241E+03  0.57174476148E+03  0.47000000000E+01 0. -1.
         -5    1    4    4    0  501  0.19860914354E+03  0.18185906511E+03 -0.77144207814E+02  0.28016357768E+03  0.47000000000E+01 0. -1.
          1    1    1    2  502    0  0.12408318395E+02  0.59676846535E+01  0.53537951848E+03  0.53555654084E+03  0.00000000000E+00 0. -1.
          1    1    1    2  503    0 -0.18359192242E+02 -0.21368255214E+02 -0.86989060349E+03  0.87034666904E+03  0.00000000000E+00 0. -1.
<mgrwt>
<rscale>  0 0.19694539E+02</rscale>
<asrwt>0</asrwt>
<pdfrwt beam="1">  1        2 0.37449973E+00 0.13768792E+02</pdfrwt>
<pdfrwt beam="2">  1        2 0.36149060E+00 0.28170582E+02</pdfrwt>
<totfact> 0.68077289E+00</totfact>
</mgrwt>
</event>
<event>
13    1  0.1595792E-008  0.1949524E+03  0.7546771E-02  0.1398227E+00
          2   -1    0    0  502    0  0.00000000000E+00  0.00000000000E+00  0.94241859024E+03  0.94241859024E+03  0.00000000000E+00 0. -1.
          2   -1    0    0  503    0 -0.00000000000E+00 -0.00000000000E+00 -0.18321504418E+04  0.18321504418E+04  0.00000000000E+00 0. -1.
         24    2    1    2    0    0 -0.12371654565E+02 -0.18686894982E+03 -0.18057721103E+03  0.27269403045E+03  0.81736423077E+02 0.  0.
         25    2    1    2    0    0 -0.13834032123E+03  0.22607561180E+02  0.12698457279E+03  0.22671702047E+03  0.12500551727E+03 0.  0.
         24    2    1    2    0    0  0.30328555523E+02 -0.14850944915E+02  0.89380620069E+02  0.12737905817E+03  0.84238692846E+02 0.  0.
        -11    1    3    3    0    0 -0.36323789810E+01 -0.13009951436E+03 -0.69259477558E+02  0.14743118071E+03  0.00000000000E+00 0.  1.
         12    1    3    3    0    0 -0.87392755839E+01 -0.56769435457E+02 -0.11131773347E+03  0.12526284974E+03  0.00000000000E+00 0. -1.
        -13    1    5    5    0    0 -0.52125638467E+01  0.15736205695E+02 -0.86593992662E+01  0.18702518204E+02  0.00000000000E+00 0.  1.
         14    1    5    5    0    0  0.35541119370E+02 -0.30587150610E+02  0.98040019336E+02  0.10867653997E+03  0.00000000000E+00 0. -1.
          5    1    4    4  501    0 -0.37073413638E+02 -0.15625394584E+02 -0.19145930202E+02  0.44802316882E+02  0.47000000000E+01 0. -1.
         -5    1    4    4    0  501 -0.10126690759E+03  0.38232955764E+02  0.14613050299E+03  0.18191470359E+03  0.47000000000E+01 0. -1.
          1    1    1    2  502    0  0.15130093985E+02  0.10485271108E+02  0.60456037288E+03  0.60484056173E+03  0.00000000000E+00 0. -1.
          1    1    1    2  503    0  0.10525332628E+03  0.16862706244E+03 -0.15300802062E+04  0.15429383612E+04  0.00000000000E+00 0. -1.
<mgrwt>
<rscale>  0 0.59905895E+02</rscale>
<asrwt>0</asrwt>
<pdfrwt beam="1">  1        2 0.13859097E+00 0.18408168E+02</pdfrwt>
<pdfrwt beam="2">  1        2 0.26943389E+00 0.19495238E+03</pdfrwt>
<totfact> 0.55449474E+01</totfact>
</mgrwt>
</event>
<event>
13    1  0.1595792E-008  0.1112787E+03  0.7546771E-02  0.1345817E+00
         -1   -1    0    0    0  501  0.00000000000E+00  0.00000000000E+00  0.62717458996E+03  0.62717458996E+03  0.00000000000E+00 0.  1.
         -1   -1    0    0    0  502 -0.00000000000E+00 -0.00000000000E+00 -0.93588540720E+03  0.93588540720E+03  0.00000000000E+00 0.  1.
         24    2    1    2    0    0 -0.56157082681E+00 -0.19405474022E+02 -0.92473278541E+02  0.12514791201E+03  0.82059763913E+02 0.  0.
         25    2    1    2    0    0  0.18681018725E+03 -0.24034015838E+03 -0.28399502522E+03  0.43467130821E+03  0.12499813615E+03 0.  0.
         24    2    1    2    0    0 -0.22251385474E+03  0.20792673254E+03  0.15630164867E+03  0.35168031651E+03  0.80640548054E+02 0.  0.
        -11    1    5    5    0    0 -0.17088793416E+03  0.19354892483E+03  0.10921481056E+03  0.28034219659E+03  0.00000000000E+00 0.  1.
         12    1    5    5    0    0 -0.51625920586E+02  0.14377807704E+02  0.47086838113E+02  0.71338119924E+02  0.00000000000E+00 0. -1.
        -13    1    3    3    0    0  0.93830485680E+01 -0.43697132752E+02 -0.21737583791E+02  0.49699130377E+02  0.00000000000E+00 0.  1.
         14    1    3    3    0    0 -0.99446193948E+01  0.24291658730E+02 -0.70735694750E+02  0.75448781637E+02  0.00000000000E+00 0. -1.
          5    1    4    4  503    0  0.12867194014E+03 -0.18589634096E+03 -0.27242161176E+03  0.35404737299E+03  0.47000000000E+01 0.  1.
         -5    1    4    4    0  503  0.58138247107E+02 -0.54443817412E+02 -0.11573413454E+02  0.80623935218E+02  0.47000000000E+01 0.  1.
         -2    1    1    2    0  502 -0.25538034101E+02 -0.42648394871E+02 -0.35694286992E+03  0.36038769285E+03  0.00000000000E+00 0.  1.
         -2    1    1    2    0  501  0.61803272422E+02  0.94467294733E+02  0.26839870776E+03  0.29117276759E+03  0.00000000000E+00 0.  1.
<mgrwt>
<rscale>  0 0.74375109E+02</rscale>
<asrwt>0</asrwt>
<pdfrwt beam="1">  1       -1 0.92231558E-01 0.11127872E+03</pdfrwt>
<pdfrwt beam="2">  1       -1 0.13763021E+00 0.49709926E+02</pdfrwt>
<totfact> 0.55792786E+00</totfact>
</mgrwt>
</event>
<event>
13    1  0.1595792E-008  0.1071086E+03  0.7546771E-02  0.1423369E+00
          2   -1    0    0  503    0  0.00000000000E+00  0.00000000000E+00  0.11413658529E+04  0.11413658529E+04  0.00000000000E+00 0. -1.
          2   -1    0    0  502    0 -0.00000000000E+00 -0.00000000000E+00 -0.26512690573E+04  0.26512690573E+04  0.00000000000E+00 0. -1.
         24    2    1    2    0    0  0.46828595939E+02 -0.86387844647E+02 -0.61876725207E+03  0.63176072441E+03  0.81196819908E+02 0.  0.
         25    2    1    2    0    0  0.91448206432E+01  0.11300548101E+03  0.34091551423E+01  0.16875726324E+03  0.12495409187E+03 0.  0.
         24    2    1    2    0    0  0.55604688686E+02  0.28502081833E+02 -0.67817826204E+01  0.10187428709E+03  0.80175605531E+02 0.  0.
        -11    1    3    3    0    0  0.43412442530E+00 -0.77141179108E+02 -0.44654536580E+03  0.45315969999E+03  0.00000000000E+00 0.  1.
         12    1    3    3    0    0  0.46394471513E+02 -0.92466655390E+01 -0.17222188627E+03  0.17860102441E+03  0.00000000000E+00 0. -1.
        -13    1    5    5    0    0  0.13664703030E+02 -0.27390753829E+02 -0.91734141646E+01  0.31955109633E+02  0.00000000000E+00 0.  1.
         14    1    5    5    0    0  0.41939985656E+02  0.55892835661E+02  0.23916315442E+01  0.69919177459E+02  0.00000000000E+00 0. -1.
          5    1    4    4  501    0 -0.61749269037E+01  0.41435871408E+02  0.61938865981E+02  0.74923789817E+02  0.47000000000E+01 0. -1.
         -5    1    4    4    0  501  0.15319747547E+02  0.71569609598E+02 -0.58529710838E+02  0.93833473418E+02  0.47000000000E+01 0. -1.
          1    1    1    2  502    0 -0.10400404380E+03 -0.28638801126E+02 -0.18872730160E+04  0.18903535275E+04  0.00000000000E+00 0. -1.
          1    1    1    2  503    0 -0.75740614658E+01 -0.26480917065E+02  0.99950969122E+03  0.99988910796E+03  0.00000000000E+00 0. -1.
<mgrwt>
<rscale>  0 0.54314543E+02</rscale>
<asrwt>0</asrwt>
<pdfrwt beam="1">  1        2 0.16784792E+00 0.27542792E+02</pdfrwt>
<pdfrwt beam="2">  1        2 0.38989250E+00 0.10710859E+03</pdfrwt>
<totfact> 0.17906772E+01</totfact>
</mgrwt>
</event>
<event>
13    1  0.1595792E-008  0.1847795E+03  0.7546771E-02  0.1237992E+00
          2   -1    0    0  503    0  0.00000000000E+00  0.00000000000E+00  0.40079914680E+03  0.40079914680E+03  0.00000000000E+00 0. -1.
         -3   -1    0    0    0  501 -0.00000000000E+00 -0.00000000000E+00 -0.28385634196E+04  0.28385634196E+04  0.00000000000E+00 0.  1.
         24    2    1    2    0    0 -0.23926392261E+02 -0.99455247039E+02 -0.25891846751E+03  0.28981431541E+03  0.80558960940E+02 0.  0.
         25    2    1    2    0    0 -0.11717157951E+02  0.21489308399E+02 -0.15506019914E+03  0.20066694402E+03  0.12499789957E+03 0.  0.
         24    2    1    2    0    0  0.78167599272E+02  0.13867466228E+03  0.61814761449E+02  0.18876762625E+03  0.80444492984E+02 0.  0.
        -11    1    5    5    0    0  0.39681981712E+02  0.18426329296E+02 -0.80257030169E+01  0.44481470218E+02  0.00000000000E+00 0.  1.
         12    1    5    5    0    0  0.38485617560E+02  0.12024833299E+03  0.69840464466E+02  0.14428615603E+03  0.00000000000E+00 0. -1.
        -11    1    3    3    0    0  0.21939789993E+02 -0.47022625393E+02 -0.16442293529E+03  0.17241630820E+03  0.00000000000E+00 0.  1.
         12    1    3    3    0    0 -0.45866182254E+02 -0.52432621645E+02 -0.94495532224E+02  0.11739800721E+03  0.00000000000E+00 0. -1.
          5    1    4    4  502    0 -0.74332196571E+01 -0.30353930256E+02 -0.14380464767E+03  0.14723613867E+03  0.47000000000E+01 0.  1.
         -5    1    4    4    0  502 -0.42839382943E+01  0.51843238655E+02 -0.11255551470E+02  0.53430805351E+02  0.47000000000E+01 0.  1.
          1    1    1    2  503    0 -0.50565248685E+02 -0.19908072404E+03  0.19029363580E+03  0.28000294085E+03  0.00000000000E+00 0. -1.
         -4    1    1    2    0  501  0.80411996261E+01  0.13837200039E+03 -0.22758940033E+04  0.22801107398E+04  0.00000000000E+00 0.  1.
<mgrwt>
<rscale>  0 0.12314795E+03</rscale>
<asrwt>0</asrwt>
<pdfrwt beam="1">  1        2 0.58941051E-01 0.18477947E+03</pdfrwt>
<pdfrwt beam="2">  1       -3 0.41743579E+00 0.82073070E+02</pdfrwt>
<totfact> 0.61861699E-01</totfact>
</mgrwt>
</event>
<event>
13    1  0.1595792E-008  0.5387896E+02  0.7546771E-02  0.1494831E+00
          2   -1    0    0  503    0  0.00000000000E+00  0.00000000000E+00  0.86375204666E+03  0.86375204666E+03  0.00000000000E+00 0. -1.
          2   -1    0    0  502    0 -0.00000000000E+00 -0.00000000000E+00 -0.20091164774E+04  0.20091164774E+04  0.00000000000E+00 0. -1.
         24    2    1    2    0    0  0.16122801813E+01  0.44679508008E+02 -0.71694566278E+03  0.72303361879E+03  0.82265865552E+02 0.  0.
         25    2    1    2    0    0 -0.10938783737E+03 -0.20064223633E+02 -0.10029871136E+03  0.19507225533E+03  0.12500032506E+03 0.  0.
         24    2    1    2    0    0  0.60806580937E+02 -0.88496460118E+02  0.52477201069E+03  0.54164846992E+03  0.80425978546E+02 0.  0.
        -11    1    3    3    0    0 -0.26824946525E+02 -0.19673369007E+01 -0.96225208487E+02  0.99913657319E+02  0.00000000000E+00 0.  1.
         12    1    3    3    0    0  0.28437226706E+02  0.46646844909E+02 -0.62072045429E+03  0.62311996147E+03  0.00000000000E+00 0. -1.
        -11    1    5    5    0    0  0.30768998176E+02 -0.72050501199E+02  0.19570406141E+03  0.21080342887E+03  0.00000000000E+00 0.  1.
         12    1    5    5    0    0  0.30037582761E+02 -0.16445958918E+02  0.32906794929E+03  0.33084504105E+03  0.00000000000E+00 0. -1.
          5    1    4    4  501    0 -0.10566716270E+03  0.61364691903E+01 -0.16698102709E+02  0.10725727090E+03  0.47000000000E+01 0.  1.
         -5    1    4    4    0  501 -0.37206746744E+01 -0.26200692823E+02 -0.83600608649E+02  0.87814984433E+02  0.47000000000E+01 0.  1.
          1    1    1    2  502    0  0.17038206580E+02  0.51089040765E+02 -0.11314148443E+04  0.11326958729E+04  0.00000000000E+00 0. -1.
          1    1    1    2  503    0  0.29930769674E+02  0.12792134978E+02  0.27852277697E+03  0.28041830715E+03  0.00000000000E+00 0. -1.
<mgrwt>
<rscale>  0 0.41877795E+02</rscale>
<asrwt>0</asrwt>
<pdfrwt beam="1">  1        2 0.12702236E+00 0.32549803E+02</pdfrwt>
<pdfrwt beam="2">  1        2 0.29545831E+00 0.53878964E+02</pdfrwt>
<totfact> 0.55960736E+01</totfact>
</mgrwt>
</event>
<event>
13    1  0.1595792E-008  0.8560207E+02  0.7546771E-02  0.1388406E+00
          2   -1    0    0  503    0  0.00000000000E+00  0.00000000000E+00  0.34862411155E+04  0.34862411155E+04  0.00000000000E+00 0. -1.
          2   -1    0    0  502    0 -0.00000000000E+00 -0.00000000000E+00 -0.28019177288E+04  0.28019177288E+04  0.00000000000E+00 0. -1.
         24    2    1    2    0    0 -0.17421608988E+02  0.65002062332E+01 -0.49996307636E+03  0.50680545183E+03  0.80888337447E+02 0.  0.
         25    2    1    2    0    0 -0.23488282011E+02 -0.51221903765E+02 -0.28202699832E+03  0.31359182649E+03  0.12500089218E+03 0.  0.
         24    2    1    2    0    0 -0.32788838471E+02  0.46358394223E+02  0.40261565853E+01  0.98104684542E+02  0.79900629215E+02 0.  0.
        -11    1    3    3    0    0  0.40828177043E+01 -0.11428015262E+00  0.18531236781E+01  0.44851452291E+01  0.00000000000E+00 0.  1.
         12    1    3    3    0    0 -0.21504426692E+02  0.66144863858E+01 -0.50181620004E+03  0.50232030660E+03  0.00000000000E+00 0. -1.
        -11    1    5    5    0    0 -0.10661484919E+01  0.59043038461E+02  0.17170993009E+02  0.61498455788E+02  0.00000000000E+00 0.  1.
         12    1    5    5    0    0 -0.31722689979E+02 -0.12684644239E+02 -0.13144836424E+02  0.36606228754E+02  0.00000000000E+00 0. -1.
          5    1    4    4  501    0  0.26115983454E+02 -0.21432260041E+02 -0.10152640339E+02  0.35588656453E+02  0.47000000000E+01 0.  1.
         -5    1    4    4    0  501 -0.49604265466E+02 -0.29789643724E+02 -0.27187435798E+03  0.27800317004E+03  0.47000000000E+01 0.  1.
          1    1    1    2  502    0  0.35377450193E-01 -0.45348055835E+02 -0.19528845639E+04  0.19534110083E+04  0.00000000000E+00 0. -1.
          1    1    1    2  503    0  0.73663352020E+02  0.43711359144E+02  0.34151718687E+04  0.34162458731E+04  0.00000000000E+00 0. -1.
<mgrwt>
<rscale>  0 0.62304803E+02</rscale>
<asrwt>0</asrwt>
<pdfrwt beam="1">  1        2 0.51268252E+00 0.85602067E+02</pdfrwt>
<pdfrwt beam="2">  1        2 0.41204672E+00 0.45348070E+02</pdfrwt>
<totfact> 0.10286577E+00</totfact>
</mgrwt>
</event>
<event>
13    1  0.1595792E-008  0.1275667E+03  0.7546771E-02  0.1472485E+00
          2   -1    0    0  502    0  0.00000000000E+00  0.00000000000E+00  0.57185178662E+03  0.57185178662E+03  0.00000000000E+00 0. -1.
          2   -1    0    0  503    0 -0.00000000000E+00 -0.00000000000E+00 -0.37375939523E+03  0.37375939523E+03  0.00000000000E+00 0. -1.
         24    2    1    2    0    0 -0.25462810840E+02 -0.73703018057E+02 -0.48101803650E+02  0.12301892964E+03  0.82093750848E+02 0.  0.
         25    2    1    2    0    0 -0.96676506587E+02  0.15686917375E+03  0.15726519781E+03  0.27260015345E+03  0.12499686643E+03 0.  0.
         24    2    1    2    0    0  0.20328534127E+02 -0.55466065860E+02  0.58986423364E+02  0.11657292564E+03  0.81364089685E+02 0.  0.
        -11    1    5    5    0    0  0.67495678209E+00  0.20625500271E+02  0.50181201999E+01  0.21237899106E+02  0.00000000000E+00 0.  1.
         12    1    5    5    0    0  0.19653577344E+02 -0.76091566131E+02  0.53968303164E+02  0.95335026538E+02  0.00000000000E+00 0. -1.
        -13    1    3    3    0    0 -0.30696092345E+02 -0.90526262633E+02 -0.39827118953E+02  0.10355411009E+03  0.00000000000E+00 0.  1.
         14    1    3    3    0    0  0.52332815055E+01  0.16823244576E+02 -0.82746846971E+01  0.19464819552E+02  0.00000000000E+00 0. -1.
          5    1    4    4  501    0 -0.54499451776E+02  0.35542105079E+02  0.12355386327E+03  0.13971785357E+03  0.47000000000E+01 0.  1.
         -5    1    4    4    0  501 -0.42177054811E+02  0.12132706867E+03  0.33711334547E+02  0.13288229988E+03  0.47000000000E+01 0.  1.
          1    1    1    2  502    0 -0.15530928590E+02  0.41876033621E+01  0.21302694680E+03  0.21363339118E+03  0.00000000000E+00 0. -1.
          1    1    1    2  503    0  0.11734171189E+03 -0.31887693198E+02 -0.18308437294E+03  0.21978578194E+03  0.00000000000E+00 0. -1.
<mgrwt>
<rscale>  0 0.45298827E+02</rscale>
<asrwt>0</asrwt>
<pdfrwt beam="1">  1        2 0.84095852E-01 0.16085576E+02</pdfrwt>
<pdfrwt beam="2">  1        2 0.54964617E-01 0.12756669E+03</pdfrwt>
<totfact> 0.82587372E+02</totfact>
</mgrwt>
</event>
<event>
13    1  0.1595792E-008  0.1001023E+03  0.7546771E-02  0.1474566E+00
         -1   -1    0    0    0  501 -0.00000000000E+00  0.00000000000E+00  0.10448384490E+04  0.10448384490E+04  0.00000000000E+00 0.  1.
          2   -1    0    0  503    0  0.00000000000E+00 -0.00000000000E+00 -0.71527222519E+03  0.71527222519E+03  0.00000000000E+00 0. -1.
         24    2    1    2    0    0  0.96118849962E+00  0.54926106687E+02  0.33132401282E+02  0.10318171147E+03  0.80814036452E+02 0.  0.
         25    2    1    2    0    0 -0.17732041352E+03  0.18571366812E+02  0.12206093203E+03  0.24962140108E+03  0.12499819212E+03 0.  0.
         24    2    1    2    0    0  0.83052808736E+02 -0.72626412343E+02 -0.19604475542E+03  0.24050451291E+03  0.85067677745E+02 0.  0.
        -13    1    5    5    0    0  0.93046692772E+02 -0.37714504407E+02 -0.12173071993E+03  0.15779239225E+03  0.00000000000E+00 0.  1.
         14    1    5    5    0    0 -0.99938840357E+01 -0.34911907935E+02 -0.74314035488E+02  0.82712120661E+02  0.00000000000E+00 0. -1.
        -13    1    3    3    0    0  0.12398454512E+02  0.72810191756E+02  0.15230051824E+02  0.75412201774E+02  0.00000000000E+00 0.  1.
         14    1    3    3    0    0 -0.11437266012E+02 -0.17884085068E+02  0.17902349458E+02  0.27769509695E+02  0.00000000000E+00 0. -1.
          5    1    4    4  502    0 -0.13382482425E+02  0.46188353558E+02  0.46099712331E+02  0.66781197333E+02  0.47000000000E+01 0.  1.
         -5    1    4    4    0  502 -0.16393793110E+03 -0.27616986746E+02  0.75961219695E+02  0.18284020375E+03  0.47000000000E+01 0.  1.
          1    1    1    2  503    0  0.98252078379E+02  0.18710999352E+02 -0.39177620721E+03  0.40434164878E+03  0.00000000000E+00 0. -1.
         -2    1    1    2    0  501 -0.49456620918E+01 -0.19582060509E+02  0.76219385316E+03  0.76246139998E+03  0.00000000000E+00 0.  1.
<mgrwt>
<rscale>  0 0.44964003E+02</rscale>
<asrwt>0</asrwt>
<pdfrwt beam="2">  1        2 0.10518709E+00 0.10010233E+03</pdfrwt>
<pdfrwt beam="1">  1       -1 0.15365271E+00 0.20196947E+02</pdfrwt>
<totfact> 0.21763032E+01</totfact>
</mgrwt>
</event>
<event>
13    1  0.1595792E-008  0.7762623E+02  0.7546771E-02  0.1370187E+00
          2   -1    0    0  502    0  0.00000000000E+00  0.00000000000E+00  0.18170680832E+04  0.18170680832E+04  0.00000000000E+00 0. -1.
          2   -1    0    0  503    0 -0.00000000000E+00 -0.00000000000E+00 -0.89778749725E+03  0.89778749725E+03  0.00000000000E+00 0. -1.
         24    2    1    2    0    0  0.73078417162E+02  0.99146079274E+02 -0.29812490874E+03  0.33241530047E+03  0.80318557555E+02 0.  0.
         25    2    1    2    0    0 -0.62750103899E+02 -0.86584551795E+02  0.18477128400E+02  0.16553179353E+03  0.12499964099E+03 0.  0.
         24    2    1    2    0    0  0.31756167458E+02 -0.35594330901E+02  0.69776719311E+03  0.70400430261E+03  0.80421338934E+02 0.  0.
        -11    1    3    3    0    0  0.41616354065E+02  0.10056148389E+03 -0.18164899128E+03  0.21175667404E+03  0.00000000000E+00 0.  1.
         12    1    3    3    0    0  0.31462063096E+02 -0.14154046159E+01 -0.11647591746E+03  0.12065862644E+03  0.00000000000E+00 0. -1.
        -13    1    5    5    0    0  0.57755716196E+02 -0.22862698311E+02  0.54407827239E+03  0.54761262970E+03  0.00000000000E+00 0.  1.
         14    1    5    5    0    0 -0.25999548738E+02 -0.12731632590E+02  0.15368892072E+03  0.15639167291E+03  0.00000000000E+00 0. -1.
          5    1    4    4  501    0  0.29729249286E+02 -0.50181479654E+02 -0.15255695022E+02  0.60471773531E+02  0.47000000000E+01 0. -1.
         -5    1    4    4    0  501 -0.92479353185E+02 -0.36403072141E+02  0.33732823423E+02  0.10506002000E+03  0.47000000000E+01 0. -1.
          1    1    1    2  502    0  0.31296444157E+02  0.48864033678E+02  0.10031984232E+04  0.10048752348E+04  0.00000000000E+00 0. -1.
          1    1    1    2  503    0 -0.73380924877E+02 -0.25831230256E+02 -0.50203725005E+03  0.50802894901E+03  0.00000000000E+00 0. -1.
<mgrwt>
<rscale>  0 0.67115097E+02</rscale>
<asrwt>0</asrwt>
<pdfrwt beam="1">  1        2 0.26721589E+00 0.58027245E+02</pdfrwt>
<pdfrwt beam="2">  1        2 0.13202757E+00 0.77626230E+02</pdfrwt>
<totfact> 0.62867228E+01</totfact>
</mgrwt>
</event>
<event>
13    1  0.1595792E-008  0.1706079E+02  0.7546771E-02  0.1815275E+00
          2   -1    0    0  503    0  0.00000000000E+00  0.00000000000E+00  0.27177616795E+04  0.27177616795E+04  0.00000000000E+00 0. -1.
          2   -1    0    0  502    0 -0.00000000000E+00 -0.00000000000E+00 -0.19416192670E+04  0.19416192670E+04  0.00000000000E+00 0. -1.
         24    2    1    2    0    0  0.11632443678E+02  0.53289206559E+03 -0.31631146908E+03  0.62681173914E+03  0.93438447913E+02 0.  0.
         25    2    1    2    0    0  0.27445892162E+03 -0.58102581046E+03 -0.25805506251E+03  0.70365910455E+03  0.12500011217E+03 0.  0.
         24    2    1    2    0    0 -0.27732645084E+03  0.32676788239E+02  0.14510176634E+04  0.14795600506E+04  0.75285794468E+02 0.  0.
        -11    1    5    5    0    0 -0.17569090680E+03 -0.33700921295E+01  0.75097674711E+03  0.77126177589E+03  0.00000000000E+00 0.  1.
         12    1    5    5    0    0 -0.10163554404E+03  0.36046880368E+02  0.70004091632E+03  0.70829827469E+03  0.00000000000E+00 0. -1.
        -11    1    3    3    0    0 -0.16089281294E+02  0.43910039526E+03 -0.22794839194E+03  0.49500352674E+03  0.00000000000E+00 0.  1.
         12    1    3    3    0    0  0.27721724972E+02  0.93791670323E+02 -0.88363077131E+02  0.13180821240E+03  0.00000000000E+00 0. -1.
          5    1    4    4  501    0  0.42821180224E+02 -0.22047817798E+03 -0.11088901197E+03  0.25052493572E+03  0.47000000000E+01 0. -1.
         -5    1    4    4    0  501  0.23163774140E+03 -0.36054763249E+03 -0.14716605054E+03  0.45313416883E+03  0.47000000000E+01 0. -1.
          1    1    1    2  502    0 -0.17036281764E+02  0.91985359916E+00 -0.97477475178E+03  0.97492404716E+03  0.00000000000E+00 0. -1.
          1    1    1    2  503    0  0.82713673039E+01  0.14537103040E+02  0.87426603239E+03  0.87442600503E+03  0.00000000000E+00 0. -1.
<mgrwt>
<rscale>  0 0.16892323E+02</rscale>
<asrwt>0</asrwt>
<pdfrwt beam="1">  1        2 0.39967084E+00 0.16725516E+02</pdfrwt>
<pdfrwt beam="2">  1        2 0.28553224E+00 0.17060794E+02</pdfrwt>
<totfact> 0.10026948E+01</totfact>
</mgrwt>
</event>
<event>
13    1  0.1595792E-008  0.1272892E+03  0.7546771E-02  0.1249874E+00
          2   -1    0    0  503    0  0.00000000000E+00  0.00000000000E+00  0.57290004726E+03  0.57290004726E+03  0.00000000000E+00 0. -1.
          2   -1    0    0  502    0 -0.00000000000E+00 -0.00000000000E+00 -0.10312410409E+04  0.10312410409E+04  0.00000000000E+00 0. -1.
         24    2    1    2    0    0  0.95420698570E+02 -0.10074652498E+03 -0.21352991520E+03  0.26721049363E+03  0.80941035362E+02 0.  0.
         25    2    1    2    0    0 -0.18273041261E+03  0.67647273999E+02  0.25823965691E+01  0.23151248501E+03  0.12499921829E+03 0.  0.
         24    2    1    2    0    0  0.10050717544E+03  0.53722713799E+01  0.65640118719E+02  0.14462666989E+03  0.80484127892E+02 0.  0.
        -11    1    5    5    0    0  0.20283492462E+02  0.25936343268E+01 -0.19044238258E+02  0.27943335811E+02  0.00000000000E+00 0.  1.
         12    1    5    5    0    0  0.80223682977E+02  0.27786370531E+01  0.84684356977E+02  0.11668333407E+03  0.00000000000E+00 0. -1.
        -13    1    3    3    0    0  0.78753608745E+02 -0.11391978635E+03 -0.19394457651E+03  0.23831564651E+03  0.00000000000E+00 0.  1.
         14    1    3    3    0    0  0.16667089825E+02  0.13173261367E+02 -0.19585338691E+02  0.28894847118E+02  0.00000000000E+00 0. -1.
          5    1    4    4  501    0 -0.15510375428E+03  0.51119094080E+02 -0.48963727194E+02  0.17055753561E+03  0.47000000000E+01 0.  1.
         -5    1    4    4    0  501 -0.27626658330E+02  0.16528179918E+02  0.51546123763E+02  0.60954949405E+02  0.47000000000E+01 0.  1.
          1    1    1    2  502    0  0.34227377199E+02 -0.99986304545E+02 -0.61789882180E+03  0.62687138109E+03  0.00000000000E+00 0. -1.
          1    1    1    2  503    0 -0.47424838593E+02  0.12771328415E+03  0.30486522803E+03  0.33392005858E+03  0.00000000000E+00 0. -1.
<mgrwt>
<rscale>  0 0.11598377E+03</rscale>
<asrwt>0</asrwt>
<pdfrwt beam="1">  1        2 0.84250009E-01 0.12728924E+03</pdfrwt>
<pdfrwt beam="2">  1        2 0.15165309E+00 0.10568242E+03</pdfrwt>
<totfact> 0.24884895E+02</totfact>
</mgrwt>
</event>
<event>
13    1  0.1595792E-008  0.7023551E+02  0.7546771E-02  0.1581468E+00
         -1   -1    0    0    0  501 -0.00000000000E+00  0.00000000000E+00  0.12244128124E+04  0.12244128124E+04  0.00000000000E+00 0.  1.
          2   -1    0    0  503    0  0.00000000000E+00 -0.00000000000E+00 -0.16892718810E+04  0.16892718810E+04  0.00000000000E+00 0. -1.
         24    2    1    2    0    0  0.12807169130E+02  0.18256077470E+02  0.93105563868E+02  0.12473905708E+03  0.79961730792E+02 0.  0.
         25    2    1    2    0    0 -0.31395770074E+02 -0.11010713572E+03  0.34515516189E+03  0.38453360845E+03  0.12499893814E+03 0.  0.
         24    2    1    2    0    0 -0.41961149782E+02  0.35327238193E+02 -0.21802065406E+03  0.23846615156E+03  0.79525769377E+02 0.  0.
        -11    1    3    3    0    0  0.25941932558E+02  0.43050796548E+02  0.38383819451E+02  0.63242964382E+02  0.00000000000E+00 0.  1.
         12    1    3    3    0    0 -0.13134763429E+02 -0.24794719078E+02  0.54721744417E+02  0.61496092693E+02  0.00000000000E+00 0. -1.
        -11    1    5    5    0    0  0.14000296505E+02  0.21790212299E+02 -0.21425642518E+02  0.33613684886E+02  0.00000000000E+00 0.  1.
         12    1    5    5    0    0 -0.55961446287E+02  0.13537025894E+02 -0.19659501154E+03  0.20485246668E+03  0.00000000000E+00 0. -1.
          5    1    4    4  502    0 -0.42386034214E+02  0.98473585041E+01  0.54694069164E+02  0.70050535813E+02  0.47000000000E+01 0. -1.
         -5    1    4    4    0  502  0.10990264139E+02 -0.11995449422E+03  0.29046109272E+03  0.31448307264E+03  0.47000000000E+01 0. -1.
          1    1    1    2  503    0  0.47080065482E+02  0.52090387224E+02 -0.14245899066E+04  0.14263191589E+04  0.00000000000E+00 0. -1.
         -2    1    1    2    0  501  0.13469685245E+02  0.44334328300E+01  0.73949076626E+03  0.73962671743E+03  0.00000000000E+00 0.  1.
<mgrwt>
<rscale>  0 0.31559112E+02</rscale>
<asrwt>0</asrwt>
<pdfrwt beam="2">  1        2 0.24842233E+00 0.70235511E+02</pdfrwt>
<pdfrwt beam="1">  1       -1 0.18006071E+00 0.14180541E+02</pdfrwt>
<totfact> 0.44746105E+00</totfact>
</mgrwt>
</event>
<event>
13    1  0.1595792E-008  0.4367417E+02  0.7546771E-02  0.1543791E+00
         -1   -1    0    0    0  501 -0.00000000000E+00  0.00000000000E+00  0.40775479101E+03  0.40775479101E+03  0.00000000000E+00 0.  1.
          2   -1    0    0  503    0  0.00000000000E+00 -0.00000000000E+00 -0.11638630439E+04  0.11638630439E+04  0.00000000000E+00 0. -1.
         24    2    1    2    0    0 -0.16802563065E+02  0.93352194681E+01  0.91543100887E+02  0.12313524649E+03  0.80079193060E+02 0.  0.
         25    2    1    2    0    0 -0.13367109592E+02  0.20531753954E+02  0.77556292878E+02  0.14913701573E+03  0.12500655326E+03 0.  0.
         24    2    1    2    0    0  0.16318405396E+02  0.37221997609E+02 -0.61243121643E+02  0.10879227866E+03  0.80207683467E+02 0.  0.
        -11    1    5    5    0    0  0.64397437493E+01 -0.25529312466E+02 -0.19827753839E+02  0.32959913787E+02  0.00000000000E+00 0.  1.
         12    1    5    5    0    0  0.98786616464E+01  0.62751310075E+02 -0.41415367804E+02  0.75832364874E+02  0.00000000000E+00 0. -1.
        -11    1    3    3    0    0  0.54968751887E+01 -0.28772463918E+02  0.11011615257E+02  0.31294184561E+02  0.00000000000E+00 0.  1.
         12    1    3    3    0    0 -0.22299438254E+02  0.38107683386E+02  0.80531485629E+02  0.91841061934E+02  0.00000000000E+00 0. -1.
          5    1    4    4  502    0 -0.12761809307E+00  0.31562206468E+02 -0.27773036616E+02  0.42303909115E+02  0.47000000000E+01 0.  1.
         -5    1    4    4    0  502 -0.13239491499E+02 -0.11030452514E+02  0.10532932949E+03  0.10683310662E+03  0.47000000000E+01 0.  1.
          1    1    1    2  503    0  0.16227365069E+02 -0.23953980749E+02 -0.10241938127E+04  0.10246024041E+04  0.00000000000E+00 0. -1.
         -2    1    1    2    0  501 -0.23760978080E+01 -0.43134990282E+02  0.16022928768E+03  0.16595088990E+03  0.00000000000E+00 0.  1.
<mgrwt>
<rscale>  0 0.35547523E+02</rscale>
<asrwt>0</asrwt>
<pdfrwt beam="2">  1        2 0.17115633E+00 0.28933036E+02</pdfrwt>
<pdfrwt beam="1">  1       -1 0.59963941E-01 0.43674172E+02</pdfrwt>
<totfact> 0.88441684E+01</totfact>
</mgrwt>
</event>
<event>
13    1  0.1595792E-008  0.8220084E+02  0.7546771E-02  0.1366767E+00
          2   -1    0    0  503    0  0.00000000000E+00  0.00000000000E+00  0.17091700401E+04  0.17091700401E+04  0.00000000000E+00 0. -1.
          2   -1    0    0  502    0 -0.00000000000E+00 -0.00000000000E+00 -0.35763438555E+03  0.35763438555E+03  0.00000000000E+00 0. -1.
         24    2    1    2    0    0  0.13568109956E+02  0.26218141637E+02 -0.30816839930E+02  0.94214853372E+02  0.83995692830E+02 0.  0.
         25    2    1    2    0    0  0.80719828669E+02 -0.53118030180E+02  0.45872462517E+02  0.16452218134E+03  0.12500419779E+03 0.  0.
         24    2    1    2    0    0 -0.81836900809E+02  0.70917743367E+02  0.59101229043E+03  0.60621736546E+03  0.80482060686E+02 0.  0.
        -11    1    3    3    0    0  0.43764204731E+02  0.23310309983E+01  0.16411267419E+01  0.43856956327E+02  0.00000000000E+00 0.  1.
         12    1    3    3    0    0 -0.30196094775E+02  0.23887110638E+02 -0.32457966672E+02  0.50357897045E+02  0.00000000000E+00 0. -1.
        -13    1    5    5    0    0 -0.50746386475E+02 -0.68134326842E+01  0.22589925277E+03  0.23162921018E+03  0.00000000000E+00 0.  1.
         14    1    5    5    0    0 -0.31090514334E+02  0.77731176051E+02  0.36511303766E+03  0.37458815528E+03  0.00000000000E+00 0. -1.
          5    1    4    4  501    0  0.36029008524E+02 -0.87935545115E+02  0.64932713720E+01  0.95367720550E+02  0.47000000000E+01 0.  1.
         -5    1    4    4    0  501  0.44690820145E+02  0.34817514935E+02  0.39379191145E+02  0.69154460787E+02  0.47000000000E+01 0.  1.
          1    1    1    2  502    0  0.12598807148E+02 -0.94521856192E+02 -0.21736835216E+03  0.23736493372E+03  0.00000000000E+00 0. -1.
          1    1    1    2  503    0 -0.25049844965E+02  0.50504001368E+02  0.96283609374E+03  0.96448509179E+03  0.00000000000E+00 0. -1.
<mgrwt>
<rscale>  0 0.68074064E+02</rscale>
<asrwt>0</asrwt>
<pdfrwt beam="1">  1        2 0.25134853E+00 0.56375073E+02</pdfrwt>
<pdfrwt beam="2">  1        2 0.52593293E-01 0.82200836E+02</pdfrwt>
<totfact> 0.19610370E+02</totfact>
</mgrwt>
</event>
<event>
13    1  0.1595792E-008  0.1015766E+03  0.7546771E-02  0.1383692E+00
          2   -1    0    0  503    0  0.00000000000E+00  0.00000000000E+00  0.86666978043E+03  0.86666978043E+03  0.00000000000E+00 0. -1.
          2   -1    0    0  502    0 -0.00000000000E+00 -0.00000000000E+00 -0.27999386303E+04  0.27999386303E+04  0.00000000000E+00 0. -1.
         24    2    1    2    0    0 -0.10689575346E+03 -0.10955850569E+03 -0.97089711369E+03  0.98621050507E+03  0.80871420497E+02 0.  0.
         25    2    1    2    0    0  0.10907489622E+03  0.14949379942E+02 -0.19064036050E+03  0.25313595995E+03  0.12495299205E+03 0.  0.
         24    2    1    2    0    0  0.13294007192E+03  0.72225859166E+02  0.53377612487E+02  0.17854800103E+03  0.78361863837E+02 0.  0.
        -11    1    5    5    0    0  0.62544472357E+01 -0.36996188262E+01  0.27699794765E+02  0.28637107391E+02  0.00000000000E+00 0.  1.
         12    1    5    5    0    0  0.12668562468E+03  0.75925477992E+02  0.25677817722E+02  0.14991089364E+03  0.00000000000E+00 0. -1.
        -13    1    3    3    0    0 -0.90954080247E+02 -0.41208974282E+02 -0.47593132161E+03  0.48629358125E+03  0.00000000000E+00 0.  1.
         14    1    3    3    0    0 -0.15941673214E+02 -0.68349531404E+02 -0.49496579208E+03  0.49991692382E+03  0.00000000000E+00 0. -1.
          5    1    4    4  501    0 -0.14838428384E+02 -0.29863668629E+02 -0.50696291060E+02  0.60862316651E+02  0.47000000000E+01 0.  1.
         -5    1    4    4    0  501  0.12391332461E+03  0.44813048571E+02 -0.13994406944E+03  0.19227364330E+03  0.47000000000E+01 0.  1.
          1    1    1    2  502    0 -0.38645000994E+02 -0.90947269962E+01 -0.15330362498E+04  0.15335502252E+04  0.00000000000E+00 0. -1.
          1    1    1    2  503    0 -0.96474213685E+02  0.31477993575E+02  0.70792726158E+03  0.71516371949E+03  0.00000000000E+00 0. -1.
<mgrwt>
<rscale>  0 0.63503306E+02</rscale>
<asrwt>0</asrwt>
<pdfrwt beam="1">  1        2 0.12745144E+00 0.10157665E+03</pdfrwt>
<pdfrwt beam="2">  1        2 0.41175568E+00 0.39700758E+02</pdfrwt>
<totfact> 0.23320839E+01</totfact>
</mgrwt>
</event>
<event>
13    1  0.1595792E-008  0.1299061E+03  0.7546771E-02  0.1228104E+00
          2   -1    0    0  503    0  0.00000000000E+00  0.00000000000E+00  0.29914104721E+04  0.29914104721E+04  0.00000000000E+00 0. -1.
         -1   -1    0    0    0  501 -0.00000000000E+00 -0.00000000000E+00 -0.92153309748E+03  0.92153309748E+03  0.00000000000E+00 0.  1.
         24    2    1    2    0    0 -0.27985354496E+02  0.52333127848E+02 -0.20323905695E+03  0.22661428085E+03  0.80783548317E+02 0.  0.
         25    2    1    2    0    0  0.12231535341E+03 -0.69309227198E+01  0.13045394335E+03  0.21829439373E+03  0.12500051051E+03 0.  0.
         24    2    1    2    0    0 -0.86035379378E+02 -0.16408120239E+02  0.77442619135E+03  0.78352846136E+03  0.80682160362E+02 0.  0.
        -11    1    3    3    0    0 -0.19106770592E+02 -0.18943775086E+02 -0.39273807102E+02  0.47606377947E+02  0.00000000000E+00 0.  1.
         12    1    3    3    0    0 -0.88785839041E+01  0.71276902934E+02 -0.16396524985E+03  0.17900790290E+03  0.00000000000E+00 0. -1.
        -13    1    5    5    0    0 -0.35378094801E+02 -0.39978818006E+02  0.53559196808E+03  0.53824592126E+03  0.00000000000E+00 0.  1.
         14    1    5    5    0    0 -0.50657284577E+02  0.23570697767E+02  0.23883422327E+03  0.24528254010E+03  0.00000000000E+00 0. -1.
          5    1    4    4  502    0  0.10227546125E+03 -0.49434129317E+02  0.48285258064E+02  0.12352149312E+03  0.47000000000E+01 0.  1.
         -5    1    4    4    0  502  0.20039892159E+02  0.42503206597E+02  0.82168685285E+02  0.94772900611E+02  0.47000000000E+01 0.  1.
          1    1    1    2  503    0  0.68573529281E+02 -0.12680264338E+03  0.20178985320E+04  0.20230412069E+04  0.00000000000E+00 0. -1.
         -2    1    1    2    0  501 -0.76868148819E+02  0.97808558489E+02 -0.64966223514E+03  0.66146522674E+03  0.00000000000E+00 0.  1.
<mgrwt>
<rscale>  0 0.12956397E+03</rscale>
<asrwt>0</asrwt>
<pdfrwt beam="1">  1        2 0.43991330E+00 0.12990615E+03</pdfrwt>
<pdfrwt beam="2">  1       -1 0.13551957E+00 0.12922269E+03</pdfrwt>
<totfact> 0.16647095E+00</totfact>
</mgrwt>
</event>
<event>
13    1  0.1595792E-008  0.6240820E+02  0.7546771E-02  0.1476552E+00
          2   -1    0    0  502    0  0.00000000000E+00  0.00000000000E+00  0.96522082791E+03  0.96522082791E+03  0.00000000000E+00 0. -1.
          2   -1    0    0  503    0 -0.00000000000E+00 -0.00000000000E+00 -0.10037395354E+04  0.10037395354E+04  0.00000000000E+00 0. -1.
         24    2    1    2    0    0  0.55516562851E+02 -0.14884673857E+02 -0.21572285833E+03  0.23538032009E+03  0.74591562621E+02 0.  0.
         25    2    1    2    0    0 -0.10729916102E+02 -0.84661557676E+01  0.17875065151E+03  0.21855712695E+03  0.12501446089E+03 0.  0.
         24    2    1    2    0    0  0.14216108190E+02 -0.10432521340E+02  0.11393586426E+03  0.14031198669E+03  0.79969601797E+02 0.  0.
        -13    1    5    5    0    0  0.22328979662E+02  0.31102144273E+02  0.41849035850E+02  0.56720970661E+02  0.00000000000E+00 0.  1.
         14    1    5    5    0    0 -0.81128714715E+01 -0.41534665613E+02  0.72086828408E+02  0.83591016031E+02  0.00000000000E+00 0. -1.
        -13    1    3    3    0    0  0.64555403073E+02 -0.31070514714E+02 -0.13813796293E+03  0.15561129057E+03  0.00000000000E+00 0.  1.
         14    1    3    3    0    0 -0.90388402218E+01  0.16185840857E+02 -0.77584895395E+02  0.79769029518E+02  0.00000000000E+00 0. -1.
          5    1    4    4  501    0 -0.26913877152E+02 -0.40219101730E+02  0.17590015688E+03  0.18249626878E+03  0.47000000000E+01 0. -1.
         -5    1    4    4    0  501  0.16183961050E+02  0.31752945962E+02  0.28504946341E+01  0.36060858173E+02  0.47000000000E+01 0. -1.
          1    1    1    2  502    0 -0.25680434989E+02 -0.18994769480E+02  0.62790042120E+03  0.62871235470E+03  0.00000000000E+00 0. -1.
          1    1    1    2  503    0 -0.33322319950E+02  0.52778120445E+02 -0.74338278618E+03  0.74599857492E+03  0.00000000000E+00 0. -1.
<mgrwt>
<rscale>  0 0.44647926E+02</rscale>
<asrwt>0</asrwt>
<pdfrwt beam="1">  1        2 0.14194424E+00 0.31941916E+02</pdfrwt>
<pdfrwt beam="2">  1        2 0.14760875E+00 0.62408195E+02</pdfrwt>
<totfact> 0.15117056E+02</totfact>
</mgrwt>
</event>
<event>
13    1  0.1595792E-008  0.1691862E+03  0.7546771E-02  0.1323264E+00
         -1   -1    0    0    0  501 -0.00000000000E+00  0.00000000000E+00  0.39588649429E+03  0.39588649429E+03  0.00000000000E+00 0.  1.
          2   -1    0    0  503    0  0.00000000000E+00 -0.00000000000E+00 -0.19207995705E+04  0.19207995705E+04  0.00000000000E+00 0. -1.
         24    2    1    2    0    0  0.13163604338E+02  0.74035572849E+02 -0.27898964437E+02  0.11280314132E+03  0.79319921517E+02 0.  0.
         25    2    1    2    0    0  0.18926778502E+02 -0.24028804786E+03 -0.65618220162E+03  0.71013930264E+03  0.12500471405E+03 0.  0.
         24    2    1    2    0    0  0.59121184538E+02  0.17817122606E+02 -0.66420020737E+03  0.67142536992E+03  0.76402536445E+02 0.  0.
        -11    1    3    3    0    0  0.18657103910E+02  0.86588100605E+02 -0.84019017737E+01  0.88972909619E+02  0.00000000000E+00 0.  1.
         12    1    3    3    0    0 -0.54934995716E+01 -0.12552527756E+02 -0.19497062663E+02  0.23830231704E+02  0.00000000000E+00 0. -1.
        -13    1    5    5    0    0 -0.17850727554E+02 -0.17580736058E+01 -0.91208469988E+02  0.92955496312E+02  0.00000000000E+00 0.  1.
         14    1    5    5    0    0  0.76971912092E+02  0.19575196212E+02 -0.57299173739E+03  0.57846987361E+03  0.00000000000E+00 0. -1.
          5    1    4    4  502    0 -0.10304973828E+02 -0.10834904085E+03 -0.45413653751E+03  0.46702011931E+03  0.47000000000E+01 0.  1.
         -5    1    4    4    0  502  0.29231752330E+02 -0.13193900701E+03 -0.20204566411E+03  0.24311918333E+03  0.47000000000E+01 0.  1.
          1    1    1    2  503    0  0.56959541056E+01 -0.39406218214E+02 -0.46393529903E+03  0.46564069368E+03  0.00000000000E+00 0. -1.
         -2    1    1    2    0  501 -0.96907521484E+02  0.18784157062E+03  0.28730359628E+03  0.35667755720E+03  0.00000000000E+00 0.  1.
<mgrwt>
<rscale>  0 0.82074822E+02</rscale>
<asrwt>0</asrwt>
<pdfrwt beam="2">  1        2 0.28247052E+00 0.39815750E+02</pdfrwt>
<pdfrwt beam="1">  1       -1 0.58218604E-01 0.16918623E+03</pdfrwt>
<totfact> 0.39394242E+01</totfact>
</mgrwt>
</event>
<event>
13    1  0.1595792E-008  0.5212151E+02  0.7546771E-02  0.1533607E+00
         -3   -1    0    0    0  501 -0.00000000000E+00  0.00000000000E+00  0.42780180366E+03  0.42780180366E+03  0.00000000000E+00 0.  1.
          2   -1    0    0  503    0  0.00000000000E+00 -0.00000000000E+00 -0.22606909640E+04  0.22606909640E+04  0.00000000000E+00 0. -1.
         24    2    1    2    0    0 -0.66457489214E+02 -0.55490686854E+02  0.97111986831E+02  0.15141076369E+03  0.77451063107E+02 0.  0.
         25    2    1    2    0    0  0.25271287586E+03 -0.71925207734E+02 -0.11798234166E+03  0.31397485963E+03  0.12499338544E+03 0.  0.
         24    2    1    2    0    0 -0.15274120363E+03  0.89159148593E+02 -0.17092416404E+03  0.25892877738E+03  0.80930913999E+02 0.  0.
        -11    1    5    5    0    0 -0.13730089572E+03  0.82562428241E+02 -0.17905928165E+03  0.24027134009E+03  0.00000000000E+00 0.  1.
         12    1    5    5    0    0 -0.15440307904E+02  0.65967203522E+01  0.81351176155E+01  0.18657437289E+02  0.00000000000E+00 0. -1.
        -13    1    3    3    0    0 -0.71988940816E+02 -0.24496066782E+02  0.92253025334E+02  0.11955369325E+03  0.00000000000E+00 0.  1.
         14    1    3    3    0    0  0.55314516015E+01 -0.30994620072E+02  0.48589614961E+01  0.31857070440E+02  0.00000000000E+00 0. -1.
          5    1    4    4  502    0  0.21531543288E+03 -0.10388833531E+03 -0.11248374721E+03  0.26425027007E+03  0.47000000000E+01 0. -1.
         -5    1    4    4    0  502  0.37397442985E+02  0.31963127574E+02 -0.54985944581E+01  0.49724589562E+02  0.47000000000E+01 0. -1.
          1    1    1    2  503    0 -0.49088793543E+02  0.17552092415E+02 -0.18012181181E+04  0.18019723901E+04  0.00000000000E+00 0. -1.
         -4    1    1    2    0  501  0.15574610522E+02  0.20704653580E+02  0.16012347662E+03  0.16220597689E+03  0.00000000000E+00 0.  1.
<mgrwt>
<rscale>  0 0.36747667E+02</rscale>
<asrwt>0</asrwt>
<pdfrwt beam="2">  1        2 0.33245455E+00 0.52121514E+02</pdfrwt>
<pdfrwt beam="1">  1       -3 0.62912031E-01 0.25908515E+02</pdfrwt>
<totfact> 0.10276449E+01</totfact>
</mgrwt>
</event>
<event>
13    1  0.1595792E-008  0.1109464E+03  0.7546771E-02  0.1325941E+00
          2   -1    0    0  503    0  0.00000000000E+00  0.00000000000E+00  0.87927262188E+03  0.87927262188E+03  0.00000000000E+00 0. -1.
          2   -1    0    0  502    0 -0.00000000000E+00 -0.00000000000E+00 -0.16500308210E+04  0.16500308210E+04  0.00000000000E+00 0. -1.
         24    2    1    2    0    0  0.81503447796E+02 -0.48466104625E+02 -0.96493851025E+02  0.15719653741E+03  0.80049439654E+02 0.  0.
         25    2    1    2    0    0 -0.25522920067E+01  0.48118487285E+02  0.50609612814E+00  0.13396893683E+03  0.12500206754E+03 0.  0.
         24    2    1    2    0    0 -0.18608707164E+03 -0.60446087729E+01  0.47128490627E+03  0.51315160162E+03  0.80933107230E+02 0.  0.
        -11    1    5    5    0    0 -0.97186522254E+02  0.13767707372E+02  0.15044818958E+03  0.17963693279E+03  0.00000000000E+00 0.  1.
         12    1    5    5    0    0 -0.88900549386E+02 -0.19812316145E+02  0.32083671669E+03  0.33351466883E+03  0.00000000000E+00 0. -1.
        -13    1    3    3    0    0  0.22528300650E+01 -0.15377789687E+02  0.11415488273E+02  0.19283802309E+02  0.00000000000E+00 0.  1.
         14    1    3    3    0    0  0.79250617731E+02 -0.33088314939E+02 -0.10790933930E+03  0.13791273510E+03  0.00000000000E+00 0. -1.
          5    1    4    4  501    0  0.22258358602E+01 -0.10942430929E+02  0.53183430420E+02  0.54545929373E+02  0.47000000000E+01 0.  1.
         -5    1    4    4    0  501 -0.47781278669E+01  0.59060918215E+02 -0.52677334292E+02  0.79423007462E+02  0.47000000000E+01 0.  1.
          1    1    1    2  502    0  0.91084002160E+02  0.63470167948E+02 -0.14303109059E+04  0.14346128555E+04  0.00000000000E+00 0. -1.
          1    1    1    2  503    0  0.16051913692E+02 -0.57077941835E+02  0.28425555543E+03  0.29037351148E+03  0.00000000000E+00 0. -1.
<mgrwt>
<rscale>  0 0.81106391E+02</rscale>
<asrwt>0</asrwt>
<pdfrwt beam="1">  1        2 0.12930480E+00 0.59292119E+02</pdfrwt>
<pdfrwt beam="2">  1        2 0.24265158E+00 0.11094639E+03</pdfrwt>
<totfact> 0.73868125E+01</totfact>
</mgrwt>
</event>
<event>
13    1  0.1595792E-008  0.5057613E+02  0.7546771E-02  0.1493576E+00
          2   -1    0    0  503    0  0.00000000000E+00  0.00000000000E+00  0.23862419402E+04  0.23862419402E+04  0.00000000000E+00 0. -1.
          2   -1    0    0  502    0 -0.00000000000E+00 -0.00000000000E+00 -0.12198208836E+03  0.12198208836E+03  0.00000000000E+00 0. -1.
         24    2    1    2    0    0  0.24073950585E+02 -0.13675126524E+02  0.33741543795E+02  0.91912830462E+02  0.80888271360E+02 0.  0.
         25    2    1    2    0    0  0.47238504766E+02  0.88840980970E+02  0.19480926998E+03  0.25237795758E+03  0.12497914055E+03 0.  0.
         24    2    1    2    0    0 -0.83701497396E+02 -0.63156747569E+02  0.16718604419E+03  0.21348325230E+03  0.81419961982E+02 0.  0.
        -11    1    3    3    0    0 -0.20850421325E+02 -0.10363814556E+02  0.40149975111E+02  0.46413028591E+02  0.00000000000E+00 0.  1.
         12    1    3    3    0    0  0.44924371909E+02 -0.33113119676E+01 -0.64084313157E+01  0.45499801871E+02  0.00000000000E+00 0. -1.
        -11    1    5    5    0    0 -0.99609278185E+02 -0.55700837627E+02  0.15315161934E+03  0.19099740867E+03  0.00000000000E+00 0.  1.
         12    1    5    5    0    0  0.15907780788E+02 -0.74559099414E+01  0.14034424855E+02  0.22485843629E+02  0.00000000000E+00 0. -1.
          5    1    4    4  501    0  0.24389077935E+02 -0.30047424559E+02  0.54347965593E+02  0.66883975729E+02  0.47000000000E+01 0.  1.
         -5    1    4    4    0  501  0.22849426831E+02  0.11888840553E+03  0.14046130438E+03  0.18549398186E+03  0.47000000000E+01 0.  1.
          1    1    1    2  502    0  0.43484284086E+02 -0.28026569609E+02 -0.24403364622E+02  0.57200487510E+02  0.00000000000E+00 0. -1.
          1    1    1    2  503    0 -0.31095242041E+02  0.16017462732E+02  0.18929263585E+04  0.18932495007E+04  0.00000000000E+00 0. -1.
<mgrwt>
<rscale>  0 0.42060206E+02</rscale>
<asrwt>0</asrwt>
<pdfrwt beam="1">  1        2 0.35091790E+00 0.34978182E+02</pdfrwt>
<pdfrwt beam="2">  1        2 0.17938544E-01 0.50576127E+02</pdfrwt>
<totfact> 0.31099118E+02</totfact>
</mgrwt>
</event>
<event>
13    1  0.1595792E-008  0.1871879E+03  0.7546771E-02  0.1209653E+00
          4   -1    0    0  503    0 -0.00000000000E+00  0.00000000000E+00  0.17395880576E+04  0.17395880576E+04  0.00000000000E+00 0. -1.
          2   -1    0    0  502    0  0.00000000000E+00 -0.00000000000E+00 -0.11781562611E+04  0.11781562611E+04  0.00000000000E+00 0. -1.
         24    2    1    2    0    0 -0.40450319257E+03 -0.29999460588E+03  0.11455392433E+03  0.52292658479E+03  0.81914682067E+02 0.  0.
         25    2    1    2    0    0  0.31966335704E+02  0.91067986221E+02  0.54901160004E+02  0.16718712166E+03  0.12498868568E+03 0.  0.
         24    2    1    2    0    0  0.17005902344E+03  0.57361940647E+02 -0.27971429964E+03  0.34083909849E+03  0.75635560051E+02 0.  0.
        -11    1    3    3    0    0 -0.26451658959E+03 -0.22452542455E+03  0.10944058070E+03  0.36381029829E+03  0.00000000000E+00 0.  1.
         12    1    3    3    0    0 -0.13998660298E+03 -0.75469181329E+02  0.51133436307E+01  0.15911628650E+03  0.00000000000E+00 0. -1.
        -11    1    5    5    0    0  0.42345256075E+02  0.47798090414E+02 -0.67084958215E+02  0.92618409498E+02  0.00000000000E+00 0.  1.
         12    1    5    5    0    0  0.12771376737E+03  0.95638502333E+01 -0.21262934143E+03  0.24822068899E+03  0.00000000000E+00 0. -1.
          5    1    4    4  501    0  0.35423104249E+02  0.37650939603E+02  0.89367212986E+02  0.10334881869E+03  0.47000000000E+01 0.  1.
         -5    1    4    4    0  501 -0.34567685447E+01  0.53417046619E+02 -0.34466052982E+02  0.63838302972E+02  0.47000000000E+01 0.  1.
          1    1    1    2  502    0  0.10857702159E+03 -0.82286150018E+01 -0.59587743626E+03  0.60574466467E+03  0.00000000000E+00 0. -1.
          3    1    1    2  503    0  0.93900811834E+02  0.15979329401E+03  0.12675684480E+04  0.12810468491E+04  0.00000000000E+00 0. -1.
<mgrwt>
<rscale>  0 0.14276760E+03</rscale>
<asrwt>0</asrwt>
<pdfrwt beam="2">  1        2 0.17325827E+00 0.10888838E+03</pdfrwt>
<pdfrwt beam="1">  1        4 0.25582177E+00 0.18718789E+03</pdfrwt>
<totfact> 0.82132343E-01</totfact>
</mgrwt>
</event>
<event>
13    1  0.1595792E-008  0.1232043E+03  0.7546771E-02  0.1285383E+00
          2   -1    0    0  503    0  0.00000000000E+00  0.00000000000E+00  0.19278634465E+04  0.19278634465E+04  0.00000000000E+00 0. -1.
          2   -1    0    0  502    0 -0.00000000000E+00 -0.00000000000E+00 -0.65382549835E+03  0.65382549835E+03  0.00000000000E+00 0. -1.
         24    2    1    2    0    0  0.49803048121E+02 -0.25072487907E+02 -0.10329168087E+02  0.97962625860E+02  0.79881231213E+02 0.  0.
         25    2    1    2    0    0  0.78082963718E+02  0.73308156034E+02  0.20629159828E+02  0.16588803261E+03  0.12498896817E+03 0.  0.
         24    2    1    2    0    0 -0.16880917917E+02  0.37059228873E+02  0.36882941488E+02  0.97062214613E+02  0.80014812994E+02 0.  0.
        -11    1    3    3    0    0  0.42719699025E+02 -0.47364712751E+02  0.12813473936E+02  0.65058234015E+02  0.00000000000E+00 0.  1.
         12    1    3    3    0    0  0.70833490960E+01  0.22292224845E+02 -0.23142642022E+02  0.32904391845E+02  0.00000000000E+00 0. -1.
        -13    1    5    5    0    0 -0.27147611243E+02 -0.18007044344E+02  0.21291853131E+02  0.38917726706E+02  0.00000000000E+00 0.  1.
         14    1    5    5    0    0  0.10266693327E+02  0.55066273217E+02  0.15591088357E+02  0.58144487907E+02  0.00000000000E+00 0. -1.
          5    1    4    4  501    0  0.11144842697E+03  0.49203088100E+02  0.64067584471E+01  0.12208534845E+03  0.47000000000E+01 0. -1.
         -5    1    4    4    0  501 -0.33365463254E+02  0.24105067935E+02  0.14222401381E+02  0.43802684156E+02  0.47000000000E+01 0. -1.
          1    1    1    2  502    0 -0.41194865809E+02 -0.11860008352E+03 -0.48814522161E+03  0.50403249316E+03  0.00000000000E+00 0. -1.
          1    1    1    2  503    0 -0.69810228114E+02  0.33305186524E+02  0.17150002366E+04  0.17167435786E+04  0.00000000000E+00 0. -1.
<mgrwt>
<rscale>  0 0.97619675E+02</rscale>
<asrwt>0</asrwt>
<pdfrwt beam="1">  1        2 0.28350933E+00 0.77347937E+02</pdfrwt>
<pdfrwt beam="2">  1        2 0.96150809E-01 0.12320433E+03</pdfrwt>
<totfact> 0.77761941E+01</totfact>
</mgrwt>
</event>
<event>
13    1  0.1595792E-008  0.5145227E+02  0.7546771E-02  0.1626850E+00
         -3   -1    0    0    0  501 -0.00000000000E+00  0.00000000000E+00  0.12354895404E+04  0.12354895404E+04  0.00000000000E+00 0.  1.
          2   -1    0    0  503    0  0.00000000000E+00 -0.00000000000E+00 -0.71696997255E+03  0.71696997255E+03  0.00000000000E+00 0. -1.
         24    2    1    2    0    0 -0.12676971111E+02  0.56810699206E+02  0.64590697828E+02  0.11941409418E+03  0.81851124018E+02 0.  0.
         25    2    1    2    0    0 -0.22282100037E+03 -0.73426422823E+02  0.14577151997E+01  0.26583241125E+03  0.12499643261E+03 0.  0.
         24    2    1    2    0    0  0.19908563312E+03  0.82440428894E+01 -0.22111149731E+01  0.21606696898E+03  0.83528393356E+02 0.  0.
        -13    1    3    3    0    0  0.14853299542E+02  0.65447345505E+02  0.60340782714E+02  0.90249573958E+02  0.00000000000E+00 0.  1.
         14    1    3    3    0    0 -0.27530270653E+02 -0.86366462991E+01  0.42499151134E+01  0.29164520226E+02  0.00000000000E+00 0. -1.
        -13    1    5    5    0    0  0.18912266286E+03 -0.12109819372E+02  0.11012203589E+02  0.18982965511E+03  0.00000000000E+00 0.  1.
         14    1    5    5    0    0  0.99629702681E+01  0.20353862261E+02 -0.13223318563E+02  0.26237313874E+02  0.00000000000E+00 0. -1.
          5    1    4    4  502    0 -0.16240104706E+03 -0.34716157854E+02 -0.54356570936E+02  0.17480285612E+03  0.47000000000E+01 0. -1.
         -5    1    4    4    0  502 -0.60419953304E+02 -0.38710264969E+02  0.55814286136E+02  0.91029555135E+02  0.47000000000E+01 0. -1.
          1    1    1    2  503    0 -0.12419396614E+02 -0.79626132535E+01 -0.44737608728E+03  0.44761926689E+03  0.00000000000E+00 0. -1.
         -4    1    1    2    0  501  0.48831734965E+02  0.16334293981E+02  0.90205835705E+03  0.90352677162E+03  0.00000000000E+00 0.  1.
<mgrwt>
<rscale>  0 0.27551119E+02</rscale>
<asrwt>0</asrwt>
<pdfrwt beam="2">  1        2 0.10543676E+00 0.14752784E+02</pdfrwt>
<pdfrwt beam="1">  1       -3 0.18168964E+00 0.51452266E+02</pdfrwt>
<totfact> 0.62103630E+00</totfact>
</mgrwt>
</event>
<event>
13    1  0.1595792E-008  0.2056147E+03  0.7546771E-02  0.1353148E+00
          2   -1    0    0  502    0  0.00000000000E+00  0.00000000000E+00  0.87616863494E+03  0.87616863494E+03  0.00000000000E+00 0. -1.
          2   -1    0    0  503    0 -0.00000000000E+00 -0.00000000000E+00 -0.28617826628E+04  0.28617826628E+04  0.00000000000E+00 0. -1.
         24    2    1    2    0    0  0.14295777034E+02 -0.29787229248E+01 -0.60576959630E+02  0.10203910920E+03  0.80803278008E+02 0.  0.
         25    2    1    2    0    0  0.72019519011E+00 -0.15099722947E+03 -0.10680404082E+03  0.22323642517E+03  0.12500686540E+03 0.  0.
         24    2    1    2    0    0  0.95211614304E+02 -0.55325012828E+02  0.34176497206E+02  0.14049413289E+03  0.80277393289E+02 0.  0.
        -13    1    5    5    0    0  0.23183231670E+01 -0.40604483989E+02  0.74736485189E+00  0.40677478985E+02  0.00000000000E+00 0.  1.
         14    1    5    5    0    0  0.92893291137E+02 -0.14720528839E+02  0.33429132354E+02  0.99816653908E+02  0.00000000000E+00 0. -1.
        -13    1    3    3    0    0  0.48038389205E+02  0.15589420184E+01 -0.35094470336E+02  0.59512511170E+02  0.00000000000E+00 0.  1.
         14    1    3    3    0    0 -0.33742612171E+02 -0.45376649432E+01 -0.25482489294E+02  0.42526598029E+02  0.00000000000E+00 0. -1.
          5    1    4    4  501    0  0.35782235281E+02 -0.14459279076E+03 -0.11264905918E+03  0.18681366127E+03  0.47000000000E+01 0. -1.
         -5    1    4    4    0  501 -0.35062040091E+02 -0.64044387103E+01  0.58450183624E+01  0.36422763901E+02  0.47000000000E+01 0. -1.
          1    1    1    2  502    0 -0.10597907863E+03  0.18438991736E+03  0.69389291005E+03  0.72575379941E+03  0.00000000000E+00 0. -1.
          1    1    1    2  503    0 -0.42485078998E+01  0.24911047864E+02 -0.25463024347E+04  0.25464278311E+04  0.00000000000E+00 0. -1.
<mgrwt>
<rscale>  0 0.72083534E+02</rscale>
<asrwt>0</asrwt>
<pdfrwt beam="1">  1        2 0.12884833E+00 0.20561474E+03</pdfrwt>
<pdfrwt beam="2">  1        2 0.42085039E+00 0.25270737E+02</pdfrwt>
<totfact> 0.22543546E+01</totfact>
</mgrwt>
</event>
<event>
13    1  0.1595792E-008  0.7113787E+02  0.7546771E-02  0.1366917E+00
          2   -1    0    0  503    0  0.00000000000E+00  0.00000000000E+00  0.27348748497E+04  0.27348748497E+04  0.00000000000E+00 0. -1.
          2   -1    0    0  502    0 -0.00000000000E+00 -0.00000000000E+00 -0.30106267766E+04  0.30106267766E+04  0.00000000000E+00 0. -1.
         24    2    1    2    0    0 -0.78000641169E+03  0.49165931256E+01 -0.50490432641E+03  0.93259567317E+03  0.79825657724E+02 0.  0.
         25    2    1    2    0    0  0.71676072903E+03 -0.80042043075E+02  0.13217232173E+04  0.15108718377E+04  0.12501510025E+03 0.  0.
         24    2    1    2    0    0  0.32699666966E+02  0.17172492920E+03  0.48429292285E+03  0.51979601853E+03  0.71341055697E+02 0.  0.
        -11    1    5    5    0    0  0.91110370095E+01  0.11712259393E+03  0.39810607690E+03  0.41507729578E+03  0.00000000000E+00 0.  1.
         12    1    5    5    0    0  0.23588629956E+02  0.54602335270E+02  0.86186845946E+02  0.10471872275E+03  0.00000000000E+00 0. -1.
        -11    1    3    3    0    0 -0.30254462592E+03 -0.27739206685E+02 -0.22626764556E+03  0.37881362395E+03  0.00000000000E+00 0.  1.
         12    1    3    3    0    0 -0.47746178577E+03  0.32655799811E+02 -0.27863668085E+03  0.55378204923E+03  0.00000000000E+00 0. -1.
          5    1    4    4  501    0  0.31088672778E+03  0.10458451118E+02  0.47963463675E+03  0.57169171017E+03  0.47000000000E+01 0. -1.
         -5    1    4    4    0  501  0.40587400125E+03 -0.90500494192E+02  0.84208858059E+03  0.93918012751E+03  0.47000000000E+01 0. -1.
          1    1    1    2  502    0 -0.26811599696E+02 -0.65889829829E+02 -0.21772124463E+04  0.21783742488E+04  0.00000000000E+00 0. -1.
          1    1    1    2  503    0  0.57357615385E+02 -0.30709649427E+02  0.60034870565E+03  0.60386384806E+03  0.00000000000E+00 0. -1.
<mgrwt>
<rscale>  0 0.68031797E+02</rscale>
<asrwt>0</asrwt>
<pdfrwt beam="1">  1        2 0.40218748E+00 0.65061345E+02</pdfrwt>
<pdfrwt beam="2">  1        2 0.44273923E+00 0.71137869E+02</pdfrwt>
<totfact> 0.19884294E+00</totfact>
</mgrwt>
</event>
<event>
13    1  0.1595792E-008  0.7157074E+02  0.7546771E-02  0.1357106E+00
          2   -1    0    0  502    0  0.00000000000E+00  0.00000000000E+00  0.12265970286E+04  0.12265970286E+04  0.00000000000E+00 0. -1.
          2   -1    0    0  503    0 -0.00000000000E+00 -0.00000000000E+00 -0.32176424026E+04  0.32176424026E+04  0.00000000000E+00 0. -1.
         24    2    1    2    0    0 -0.19023897443E+03  0.74648525381E+02 -0.10260757343E+04  0.10493604147E+04  0.81009861713E+02 0.  0.
         25    2    1    2    0    0  0.34446416384E+03 -0.15950176182E+03  0.24911133194E+03  0.47093182823E+03  0.12499583574E+03 0.  0.
         24    2    1    2    0    0 -0.12352680884E+03  0.18333619221E+03  0.12827827229E+02  0.23751911936E+03  0.85905454045E+02 0.  0.
        -13    1    5    5    0    0 -0.81455831714E+02  0.17636029801E+03  0.61990778335E+01  0.19436161092E+03  0.00000000000E+00 0.  1.
         14    1    5    5    0    0 -0.42070977127E+02  0.69758942014E+01  0.66287493958E+01  0.43157508442E+02  0.00000000000E+00 0. -1.
        -13    1    3    3    0    0 -0.12313089557E+03  0.86111492520E+02 -0.64681430994E+03  0.66403701563E+03  0.00000000000E+00 0.  1.
         14    1    3    3    0    0 -0.67108078861E+02 -0.11462967139E+02 -0.37926142435E+03  0.38532339906E+03  0.00000000000E+00 0. -1.
          5    1    4    4  501    0  0.10505300778E+03 -0.33612188549E+02  0.14223672796E+03  0.18005357659E+03  0.47000000000E+01 0. -1.
         -5    1    4    4    0  501  0.23941115605E+03 -0.12588957327E+03  0.10687460398E+03  0.29087825164E+03  0.47000000000E+01 0. -1.
          1    1    1    2  502    0 -0.62046162469E+02 -0.35662492438E+02  0.72737324138E+03  0.73088533431E+03  0.00000000000E+00 0. -1.
          1    1    1    2  503    0  0.31347781902E+02 -0.62820463335E+02 -0.19542820402E+04  0.19555427346E+04  0.00000000000E+00 0. -1.
<mgrwt>
<rscale>  0 0.70885846E+02</rscale>
<asrwt>0</asrwt>
<pdfrwt beam="1">  1        2 0.18038192E+00 0.71570738E+02</pdfrwt>
<pdfrwt beam="2">  1        2 0.47318271E+00 0.70207507E+02</pdfrwt>
<totfact> 0.82080162E+00</totfact>
</mgrwt>
</event>
<event>
13    1  0.1595792E-008  0.1212582E+03  0.7546771E-02  0.1283406E+00
          2   -1    0    0  503    0  0.00000000000E+00  0.00000000000E+00  0.18342015240E+04  0.18342015240E+04  0.00000000000E+00 0. -1.
          2   -1    0    0  502    0 -0.00000000000E+00 -0.00000000000E+00 -0.49069641231E+03  0.49069641231E+03  0.00000000000E+00 0. -1.
         24    2    1    2    0    0 -0.26317264966E+02  0.81486408563E+02  0.48563202714E+02  0.12649482461E+03  0.79435022368E+02 0.  0.
         25    2    1    2    0    0  0.12488460184E+02  0.12604616890E+03  0.33103644817E+03  0.37583683976E+03  0.12499840707E+03 0.  0.
         24    2    1    2    0    0 -0.39457766216E+02 -0.23268021372E+02  0.20647659515E+03  0.22713913653E+03  0.82832885183E+02 0.  0.
        -11    1    5    5    0    0  0.11498358709E+02  0.14307667583E+02  0.11145909457E+03  0.11296039734E+03  0.00000000000E+00 0.  1.
         12    1    5    5    0    0 -0.50956124925E+02 -0.37575688955E+02  0.95017500580E+02  0.11417873920E+03  0.00000000000E+00 0. -1.
        -11    1    3    3    0    0 -0.33590516771E+02  0.16638202562E+02 -0.10019662759E+02  0.38801369090E+02  0.00000000000E+00 0.  1.
         12    1    3    3    0    0  0.72732518048E+01  0.64848206001E+02  0.58582865474E+02  0.87693455517E+02  0.00000000000E+00 0. -1.
          5    1    4    4  501    0 -0.48527317720E+02  0.30651563216E+02  0.66050962769E+02  0.87631264828E+02  0.47000000000E+01 0.  1.
         -5    1    4    4    0  501  0.61015777904E+02  0.95394605689E+02  0.26498548540E+03  0.28820557493E+03  0.47000000000E+01 0.  1.
          1    1    1    2  502    0  0.48510219441E+02 -0.63703337111E+02 -0.41204136939E+03  0.41974926639E+03  0.00000000000E+00 0. -1.
          1    1    1    2  503    0  0.47763515579E+01 -0.12056121898E+03  0.11694702350E+04  0.11756778690E+04  0.00000000000E+00 0. -1.
<mgrwt>
<rscale>  0 0.98535591E+02</rscale>
<asrwt>0</asrwt>
<pdfrwt beam="1">  1        2 0.26973552E+00 0.12125825E+03</pdfrwt>
<pdfrwt beam="2">  1        2 0.72161238E-01 0.80070947E+02</pdfrwt>
<totfact> 0.11408530E+02</totfact>
</mgrwt>
</event>
<event>
13    1  0.1595792E-008  0.1295118E+03  0.7546771E-02  0.1297662E+00
          2   -1    0    0  502    0  0.00000000000E+00  0.00000000000E+00  0.27564309183E+04  0.27564309183E+04  0.00000000000E+00 0. -1.
          2   -1    0    0  503    0 -0.00000000000E+00 -0.00000000000E+00 -0.24163899241E+04  0.24163899241E+04  0.00000000000E+00 0. -1.
         24    2    1    2    0    0  0.74071758257E+02  0.32861516540E+02 -0.19638383236E+03  0.22698979097E+03  0.79945299747E+02 0.  0.
         25    2    1    2    0    0 -0.87249008260E+02 -0.12318098381E+03  0.19669637085E+03  0.27766748113E+03  0.12499529414E+03 0.  0.
         24    2    1    2    0    0  0.12677777581E+03 -0.20717098712E+02  0.19384744750E+03  0.24646756955E+03  0.81655540666E+02 0.  0.
        -11    1    5    5    0    0  0.12579620009E+03  0.18044703926E+00  0.13750339830E+03  0.18636496737E+03  0.00000000000E+00 0.  1.
         12    1    5    5    0    0  0.98157571981E+00 -0.20897545751E+02  0.56344049199E+02  0.60102602185E+02  0.00000000000E+00 0. -1.
        -11    1    3    3    0    0  0.64203276748E+02 -0.38881760965E+01 -0.16685930986E+03  0.17882731320E+03  0.00000000000E+00 0.  1.
         12    1    3    3    0    0  0.98684815098E+01  0.36749692637E+02 -0.29524522493E+02  0.48162477767E+02  0.00000000000E+00 0. -1.
          5    1    4    4  501    0 -0.65434345292E+02 -0.20491283656E+02  0.19140235322E+02  0.71344129806E+02  0.47000000000E+01 0. -1.
         -5    1    4    4    0  501 -0.21814662968E+02 -0.10268970015E+03  0.17755613553E+03  0.20632335132E+03  0.47000000000E+01 0. -1.
          1    1    1    2  502    0 -0.12101029763E+03  0.45850330792E+02  0.22814512443E+04  0.22851182738E+04  0.00000000000E+00 0. -1.
          1    1    1    2  503    0  0.74097718203E+01  0.65186235185E+02 -0.21355702362E+04  0.21365777270E+04  0.00000000000E+00 0. -1.
<mgrwt>
<rscale>  0 0.92177827E+02</rscale>
<asrwt>0</asrwt>
<pdfrwt beam="1">  1        2 0.40535749E+00 0.12951177E+03</pdfrwt>
<pdfrwt beam="2">  1        2 0.35535146E+00 0.65606021E+02</pdfrwt>
<totfact> 0.35369304E+00</totfact>
</mgrwt>
</event>
<event>
13    1  0.1595792E-008  0.6925761E+02  0.7546771E-02  0.1454467E+00
         -3   -1    0    0    0  501 -0.00000000000E+00  0.00000000000E+00  0.38638212151E+03  0.38638212151E+03  0.00000000000E+00 0.  1.
          4   -1    0    0  503    0  0.00000000000E+00 -0.00000000000E+00 -0.13512588744E+04  0.13512588744E+04  0.00000000000E+00 0. -1.
         24    2    1    2    0    0 -0.57078928298E+02  0.74679952458E+01 -0.22068346832E+02  0.10185177050E+03  0.81074016880E+02 0.  0.
         25    2    1    2    0    0  0.48496546624E+02  0.81957171112E+02 -0.48626690944E+02  0.16449571032E+03  0.12500156283E+03 0.  0.
         24    2    1    2    0    0 -0.27318528723E+02 -0.15398838213E+02 -0.68937923606E+01  0.86317050843E+02  0.80122922209E+02 0.  0.
        -11    1    5    5    0    0 -0.24658099958E+02  0.11472391915E+02 -0.36971305537E+02  0.45896787501E+02  0.00000000000E+00 0.  1.
         12    1    5    5    0    0 -0.26604287646E+01 -0.26871230128E+02  0.30077513176E+02  0.40420263343E+02  0.00000000000E+00 0. -1.
        -13    1    3    3    0    0 -0.53766645423E+02  0.14716219312E+02 -0.48720006202E+02  0.74034169646E+02  0.00000000000E+00 0.  1.
         14    1    3    3    0    0 -0.33122828753E+01 -0.72482240666E+01  0.26651659370E+02  0.27817600852E+02  0.00000000000E+00 0. -1.
          5    1    4    4  502    0  0.86705944100E+02  0.39785914667E+02 -0.11074975425E+02  0.96153964187E+02  0.47000000000E+01 0.  1.
         -5    1    4    4    0  502 -0.38209397475E+02  0.42171256445E+02 -0.37551715519E+02  0.68341746129E+02  0.47000000000E+01 0.  1.
          3    1    1    2  503    0 -0.16781230944E+02 -0.29282098775E+02 -0.11310759846E+04  0.11315793980E+04  0.00000000000E+00 0. -1.
         -4    1    1    2    0  501  0.52682141341E+02 -0.44744229370E+02  0.24378806186E+03  0.25339706625E+03  0.00000000000E+00 0.  1.
<mgrwt>
<rscale>  0 0.48347000E+02</rscale>
<asrwt>0</asrwt>
<pdfrwt beam="2">  1        4 0.19871454E+00 0.33749830E+02</pdfrwt>
<pdfrwt beam="1">  1       -3 0.56820902E-01 0.69257605E+02</pdfrwt>
<totfact> 0.91751749E-01</totfact>
</mgrwt>
</event>
<event>
13    1  0.1595792E-008  0.2312553E+02  0.7546771E-02  0.1760071E+00
          2   -1    0    0  503    0  0.00000000000E+00  0.00000000000E+00  0.41958852599E+03  0.41958852599E+03  0.00000000000E+00 0. -1.
          2   -1    0    0  502    0 -0.00000000000E+00 -0.00000000000E+00 -0.57360617633E+04  0.57360617633E+04  0.00000000000E+00 0. -1.
         24    2    1    2    0    0  0.44720172048E+03 -0.14331506291E+03 -0.38089207962E+04  0.38386239088E+04  0.81408201338E+02 0.  0.
         25    2    1    2    0    0 -0.61925529585E+03  0.18296778471E+03 -0.65131599687E+03  0.92562670688E+03  0.12497176091E+03 0.  0.
         24    2    1    2    0    0  0.14798251652E+03 -0.47813451679E+02 -0.37059722191E+03  0.40957535254E+03  0.78896876803E+02 0.  0.
        -11    1    5    5    0    0  0.51255034248E+02 -0.48644148488E+02 -0.21546071226E+03  0.22675239854E+03  0.00000000000E+00 0.  1.
         12    1    5    5    0    0  0.96727482270E+02  0.83069680887E+00 -0.15513650965E+03  0.18282295400E+03  0.00000000000E+00 0. -1.
        -13    1    3    3    0    0  0.33551519858E+03 -0.13506898553E+03 -0.27148665527E+04  0.27388527668E+04  0.00000000000E+00 0.  1.
         14    1    3    3    0    0  0.11168652191E+03 -0.82460773787E+01 -0.10940542435E+04  0.10997711420E+04  0.00000000000E+00 0. -1.
          5    1    4    4  501    0 -0.11401588908E+02  0.54945478061E+01 -0.52060427179E+02  0.53782565607E+02  0.47000000000E+01 0.  1.
         -5    1    4    4    0  501 -0.60785370694E+03  0.17747323691E+03 -0.59925556970E+03  0.87184414127E+03  0.47000000000E+01 0.  1.
          1    1    1    2  502    0  0.11485999963E+02 -0.11240873025E+02 -0.73310459378E+03  0.73328073127E+03  0.00000000000E+00 0. -1.
          1    1    1    2  503    0  0.12585058881E+02  0.19401602901E+02  0.24746537153E+03  0.24854358976E+03  0.00000000000E+00 0. -1.
<mgrwt>
<rscale>  0 0.19278392E+02</rscale>
<asrwt>0</asrwt>
<pdfrwt beam="1">  1        2 0.61704197E-01 0.23125528E+02</pdfrwt>
<pdfrwt beam="2">  1        2 0.84353846E+00 0.16071261E+02</pdfrwt>
<totfact> 0.36271647E-01</totfact>
</mgrwt>
</event>
<event>
13    1  0.1595792E-008  0.6738988E+02  0.7546771E-02  0.1381084E+00
          4   -1    0    0  503    0 -0.00000000000E+00  0.00000000000E+00  0.11634959408E+04  0.11634959408E+04  0.00000000000E+00 0. -1.
          2   -1    0    0  502    0  0.00000000000E+00 -0.00000000000E+00 -0.58567344493E+03  0.58567344493E+03  0.00000000000E+00 0. -1.
         24    2    1    2    0    0 -0.65280547272E+02 -0.41314630002E+02  0.10831031879E+03  0.15341904605E+03  0.76405693697E+02 0.  0.
         25    2    1    2    0    0  0.57450068166E+02  0.69509905076E+02 -0.12007518281E+03  0.19538354758E+03  0.12499817559E+03 0.  0.
         24    2    1    2    0    0 -0.12046584999E+02 -0.93512537323E+00 -0.16590919865E+03  0.18451833044E+03  0.79844582792E+02 0.  0.
        -11    1    3    3    0    0  0.97178502319E+01  0.49629334259E+01 -0.31226095569E+01  0.11349802279E+02  0.00000000000E+00 0.  1.
         12    1    3    3    0    0 -0.74998397504E+02 -0.46277563428E+02  0.11143292835E+03  0.14206924377E+03  0.00000000000E+00 0. -1.
        -13    1    5    5    0    0  0.26868672201E+02 -0.22831523803E+02 -0.60207730685E+02  0.69772307251E+02  0.00000000000E+00 0.  1.
         14    1    5    5    0    0 -0.38915257199E+02  0.21896398429E+02 -0.10570146796E+03  0.11474602318E+03  0.00000000000E+00 0. -1.
          5    1    4    4  501    0  0.64054157821E+02  0.19273651354E+02 -0.23111261455E+01  0.67095753031E+02  0.47000000000E+01 0.  1.
         -5    1    4    4    0  501 -0.66040896555E+01  0.50236253722E+02 -0.11776405666E+03  0.12828779455E+03  0.47000000000E+01 0.  1.
          1    1    1    2  502    0 -0.46546194847E+02 -0.39615456048E+02 -0.22493508695E+03  0.23309166856E+03  0.00000000000E+00 0. -1.
          3    1    1    2  503    0  0.66423258951E+02  0.12355306347E+02  0.98043164553E+03  0.98275679315E+03  0.00000000000E+00 0. -1.
<mgrwt>
<rscale>  0 0.64179614E+02</rscale>
<asrwt>0</asrwt>
<pdfrwt beam="2">  1        2 0.86128448E-01 0.61122276E+02</pdfrwt>
<pdfrwt beam="1">  1        4 0.17110234E+00 0.67389880E+02</pdfrwt>
<totfact> 0.66354940E+00</totfact>
</mgrwt>
</event>
<event>
13    1  0.1595792E-008  0.9394149E+02  0.7546771E-02  0.1430917E+00
          2   -1    0    0  502    0  0.00000000000E+00  0.00000000000E+00  0.14952611363E+04  0.14952611363E+04  0.00000000000E+00 0. -1.
          2   -1    0    0  503    0 -0.00000000000E+00 -0.00000000000E+00 -0.10318691601E+04  0.10318691601E+04  0.00000000000E+00 0. -1.
         24    2    1    2    0    0 -0.10328640241E+03  0.11620422773E+03  0.16281789774E+03  0.23801683443E+03  0.77271224796E+02 0.  0.
         25    2    1    2    0    0  0.23729435727E+03 -0.55686611773E+01  0.21190728609E+03  0.34186502671E+03  0.12500950608E+03 0.  0.
         24    2    1    2    0    0 -0.46022781649E+02 -0.31242010735E+02  0.38443128630E+03  0.39639676544E+03  0.79049491436E+02 0.  0.
        -11    1    5    5    0    0 -0.54224649119E+02 -0.48660469195E+02  0.34379719280E+03  0.35143230302E+03  0.00000000000E+00 0.  1.
         12    1    5    5    0    0  0.82018674699E+01  0.17418458460E+02  0.40634093507E+02  0.44964462415E+02  0.00000000000E+00 0. -1.
        -11    1    3    3    0    0 -0.11669132563E+02  0.69875577616E+02  0.70612062235E+02  0.10002413876E+03  0.00000000000E+00 0.  1.
         12    1    3    3    0    0 -0.91617269852E+02  0.46328650110E+02  0.92205835506E+02  0.13799269567E+03  0.00000000000E+00 0. -1.
          5    1    4    4  501    0  0.73723417806E+01  0.25532959582E+02 -0.89411200436E+00  0.27003201378E+02  0.47000000000E+01 0.  1.
         -5    1    4    4    0  501  0.22992201549E+03 -0.31101620760E+02  0.21280139810E+03  0.31486182533E+03  0.47000000000E+01 0.  1.
          1    1    1    2  502    0 -0.28950750779E+02 -0.64004518157E+01  0.62480485044E+03  0.62550796389E+03  0.00000000000E+00 0. -1.
          1    1    1    2  503    0 -0.59034422425E+02 -0.72993103998E+02 -0.92056934437E+03  0.92534370591E+03  0.00000000000E+00 0. -1.
<mgrwt>
<rscale>  0 0.52776399E+02</rscale>
<asrwt>0</asrwt>
<pdfrwt beam="1">  1        2 0.21989134E+00 0.29649819E+02</pdfrwt>
<pdfrwt beam="2">  1        2 0.15174546E+00 0.93941494E+02</pdfrwt>
<totfact> 0.78250408E+01</totfact>
</mgrwt>
</event>
<event>
13    1  0.1595792E-008  0.7606043E+02  0.7546771E-02  0.1385989E+00
          2   -1    0    0  503    0  0.00000000000E+00  0.00000000000E+00  0.41898007503E+03  0.41898007503E+03  0.00000000000E+00 0. -1.
         -1   -1    0    0    0  501 -0.00000000000E+00 -0.00000000000E+00 -0.56345211187E+03  0.56345211187E+03  0.00000000000E+00 0.  1.
         24    2    1    2    0    0  0.75826427904E+01 -0.56917645990E+02 -0.19805116559E+03  0.22185459217E+03  0.81841804587E+02 0.  0.
         25    2    1    2    0    0 -0.14569758178E+03  0.43333702375E+00 -0.11463234879E+03  0.22358907564E+03  0.12499410482E+03 0.  0.
         24    2    1    2    0    0  0.32360148537E+02 -0.14260657174E+02  0.75271509452E+02  0.11395451959E+03  0.77905627800E+02 0.  0.
        -11    1    3    3    0    0  0.26133800108E+02 -0.44814108789E+02 -0.49645469723E+02  0.71804961657E+02  0.00000000000E+00 0.  1.
         12    1    3    3    0    0 -0.18551157318E+02 -0.12103537201E+02 -0.14840569587E+03  0.15004963052E+03  0.00000000000E+00 0. -1.
        -13    1    5    5    0    0 -0.17939703491E+02  0.16975812020E+02  0.32930113731E+02  0.41163133329E+02  0.00000000000E+00 0.  1.
         14    1    5    5    0    0  0.50299852029E+02 -0.31236469195E+02  0.42341395721E+02  0.72791386259E+02  0.00000000000E+00 0. -1.
          5    1    4    4  502    0 -0.10062092043E+03  0.53928225133E+02 -0.10028023286E+03  0.15202315020E+03  0.47000000000E+01 0.  1.
         -5    1    4    4    0  502 -0.45076661352E+02 -0.53494888109E+02 -0.14352115924E+02  0.71565925439E+02  0.47000000000E+01 0.  1.
          1    1    1    2  503    0  0.60883229264E+02  0.44383161455E+02  0.24814766882E+03  0.25933356544E+03  0.00000000000E+00 0. -1.
         -2    1    1    2    0  501  0.44871561186E+02  0.26361804686E+02 -0.15520770072E+03  0.16370043407E+03  0.00000000000E+00 0.  1.
<mgrwt>
<rscale>  0 0.62915500E+02</rscale>
<asrwt>0</asrwt>
<pdfrwt beam="1">  1        2 0.61614717E-01 0.76060428E+02</pdfrwt>
<pdfrwt beam="2">  1       -1 0.82860605E-01 0.52042307E+02</pdfrwt>
<totfact> 0.14749226E+02</totfact>
</mgrwt>
</event>
<event>
13    1  0.1595792E-008  0.1617748E+03  0.7546771E-02  0.1340879E+00
          2   -1    0    0  502    0  0.00000000000E+00  0.00000000000E+00  0.18693552000E+04  0.18693552000E+04  0.00000000000E+00 0. -1.
          2   -1    0    0  503    0 -0.00000000000E+00 -0.00000000000E+00 -0.33318002563E+03  0.33318002563E+03  0.00000000000E+00 0. -1.
         24    2    1    2    0    0  0.57958849707E+02 -0.10473740319E+03  0.60703016971E+02  0.15704598943E+03  0.81544065643E+02 0.  0.
         25    2    1    2    0    0 -0.16643388900E+03  0.81889212016E+02  0.15361104490E+03  0.27134908270E+03  0.12501155593E+03 0.  0.
         24    2    1    2    0    0 -0.39437483695E+01  0.15828728928E+03  0.18849315159E+03  0.25745373879E+03  0.75381299573E+02 0.  0.
        -11    1    3    3    0    0  0.19133389766E+02  0.11198263161E+02  0.51871752448E+01  0.22768278125E+02  0.00000000000E+00 0.  1.
         12    1    3    3    0    0  0.38825459941E+02 -0.11593566635E+03  0.55515841726E+02  0.13427771131E+03  0.00000000000E+00 0. -1.
        -11    1    5    5    0    0  0.35616492277E+02  0.69504313539E+02  0.80417452187E+02  0.11209973568E+03  0.00000000000E+00 0.  1.
         12    1    5    5    0    0 -0.39560240646E+02  0.88782975740E+02  0.10807569940E+03  0.14535400312E+03  0.00000000000E+00 0. -1.
          5    1    4    4  501    0 -0.12287897448E+03  0.60317410051E+02  0.17137885139E+03  0.21938603654E+03  0.47000000000E+01 0.  1.
         -5    1    4    4    0  501 -0.43554914516E+02  0.21571801966E+02 -0.17767806496E+02  0.51963046160E+02  0.47000000000E+01 0.  1.
          1    1    1    2  502    0  0.12382250323E+03 -0.10163030028E+03  0.13184757109E+04  0.13281712730E+04  0.00000000000E+00 0. -1.
          1    1    1    2  503    0 -0.11403715566E+02 -0.33808797832E+02 -0.18510774998E+03  0.18851514168E+03  0.00000000000E+00 0. -1.
<mgrwt>
<rscale>  0 0.75974749E+02</rscale>
<asrwt>0</asrwt>
<pdfrwt beam="1">  1        2 0.27490517E+00 0.16177476E+03</pdfrwt>
<pdfrwt beam="2">  1        2 0.48997063E-01 0.35680240E+02</pdfrwt>
<totfact> 0.15908035E+02</totfact>
</mgrwt>
</event>
<event>
13    1  0.1595792E-008  0.3992565E+02  0.7546771E-02  0.1745532E+00
         -1   -1    0    0    0  501 -0.00000000000E+00  0.00000000000E+00  0.69498428128E+02  0.69498428128E+02  0.00000000000E+00 0.  1.
          2   -1    0    0  503    0  0.00000000000E+00 -0.00000000000E+00 -0.28582985989E+04  0.28582985989E+04  0.00000000000E+00 0. -1.
         24    2    1    2    0    0  0.38386758319E+02 -0.14581978290E+03 -0.12098831244E+03  0.20879877043E+03  0.78878403153E+02 0.  0.
         25    2    1    2    0    0  0.12563037539E+03  0.11419583041E+03 -0.12009790828E+04  0.12193438509E+04  0.12499996167E+03 0.  0.
         24    2    1    2    0    0 -0.13122479311E+03  0.69067451700E+02 -0.85692015899E+03  0.87336030386E+03  0.80348007140E+02 0.  0.
        -11    1    5    5    0    0 -0.85924227792E+02  0.30621578462E+01 -0.36656918003E+03  0.37651734818E+03  0.00000000000E+00 0.  1.
         12    1    5    5    0    0 -0.45300565313E+02  0.66005293854E+02 -0.49035097896E+03  0.49684295568E+03  0.00000000000E+00 0. -1.
        -11    1    3    3    0    0 -0.23629656213E+01 -0.12361216918E+03 -0.91559091850E+02  0.15384608957E+03  0.00000000000E+00 0.  1.
         12    1    3    3    0    0  0.40749723940E+02 -0.22207613720E+02 -0.29429220593E+02  0.54952680854E+02  0.00000000000E+00 0. -1.
          5    1    4    4  502    0  0.11475712926E+03  0.13983721023E+03 -0.98000422499E+03  0.99657112896E+03  0.47000000000E+01 0. -1.
         -5    1    4    4    0  502  0.10873246131E+02 -0.25641379819E+02 -0.22097485785E+03  0.22277272195E+03  0.47000000000E+01 0. -1.
          1    1    1    2  503    0 -0.26949958858E+02 -0.29317380570E+02 -0.61413988867E+03  0.61542961575E+03  0.00000000000E+00 0. -1.
         -2    1    1    2    0  501 -0.58423817477E+01 -0.81261186356E+01  0.42272721558E+01  0.10864486110E+02  0.00000000000E+00 0.  1.
<mgrwt>
<rscale>  0 0.19989752E+02</rscale>
<asrwt>0</asrwt>
<pdfrwt beam="2">  1        2 0.42033804E+00 0.39925648E+02</pdfrwt>
<pdfrwt beam="1">  1       -1 0.10220357E-01 0.10008358E+02</pdfrwt>
<totfact> 0.20173064E+02</totfact>
</mgrwt>
</event>
<event>
13    1  0.1595792E-008  0.7795449E+02  0.7546771E-02  0.1356473E+00
          2   -1    0    0  503    0  0.00000000000E+00  0.00000000000E+00  0.25860671086E+04  0.25860671086E+04  0.00000000000E+00 0. -1.
         -1   -1    0    0    0  501 -0.00000000000E+00 -0.00000000000E+00 -0.39051743681E+03  0.39051743681E+03  0.00000000000E+00 0.  1.
         24    2    1    2    0    0 -0.89529635217E+01 -0.16161077751E+03  0.57409178842E+02  0.19013417567E+03  0.81590391463E+02 0.  0.
         25    2    1    2    0    0 -0.53821353596E+02  0.15565988648E+03  0.83119626859E+03  0.85652861952E+03  0.12500920279E+03 0.  0.
         24    2    1    2    0    0 -0.14813231537E+02  0.13030174841E+02  0.23810957333E+03  0.24963062266E+03  0.72319164658E+02 0.  0.
        -11    1    5    5    0    0  0.95725240908E+01 -0.21326630109E+02  0.15177226443E+03  0.15356196997E+03  0.00000000000E+00 0.  1.
         12    1    5    5    0    0 -0.24385755627E+02  0.34356804950E+02  0.86337308896E+02  0.96068652698E+02  0.00000000000E+00 0. -1.
        -13    1    3    3    0    0 -0.40083363651E+02 -0.12898186832E+03  0.51929195978E+02  0.14470535509E+03  0.00000000000E+00 0.  1.
         14    1    3    3    0    0  0.31130400129E+02 -0.32628909196E+02  0.54799828648E+01  0.45428820585E+02  0.00000000000E+00 0. -1.
          5    1    4    4  502    0 -0.44251059825E+02  0.15042732945E+03  0.82988291220E+03  0.84457934838E+03  0.47000000000E+01 0.  1.
         -5    1    4    4    0  502 -0.95702937710E+01  0.52325570327E+01  0.13133563901E+01  0.11949271148E+02  0.47000000000E+01 0.  1.
          1    1    1    2  503    0  0.63321023473E+02  0.56134453109E+02  0.13698085168E+04  0.13724197614E+04  0.00000000000E+00 0. -1.
         -2    1    1    2    0  501  0.14266525181E+02 -0.63213736921E+02 -0.30097386572E+03  0.30787136619E+03  0.00000000000E+00 0.  1.
<mgrwt>
<rscale>  0 0.71075550E+02</rscale>
<asrwt>0</asrwt>
<pdfrwt beam="1">  1        2 0.38030398E+00 0.77954491E+02</pdfrwt>
<pdfrwt beam="2">  1       -1 0.57429036E-01 0.64803629E+02</pdfrwt>
<totfact> 0.18184694E+01</totfact>
</mgrwt>
</event>
<event>
13    1  0.1595792E-008  0.1689958E+03  0.7546771E-02  0.1269085E+00
          2   -1    0    0  502    0  0.00000000000E+00  0.00000000000E+00  0.21480286837E+04  0.21480286837E+04  0.00000000000E+00 0. -1.
          2   -1    0    0  503    0 -0.00000000000E+00 -0.00000000000E+00 -0.87260339005E+03  0.87260339005E+03  0.00000000000E+00 0. -1.
         24    2    1    2    0    0  0.26920042238E+02  0.94911679828E+01  0.73379027372E+02  0.11492318612E+03  0.83714312438E+02 0.  0.
         25    2    1    2    0    0  0.17091920590E+03 -0.88318269411E+02  0.48324439432E+02  0.23442221661E+03  0.12492010461E+03 0.  0.
         24    2    1    2    0    0 -0.81529174194E+02  0.51038150574E+02  0.62164969346E+03  0.63415768498E+03  0.80347551175E+02 0.  0.
        -11    1    5    5    0    0  0.43136675261E+01 -0.10434901296E+02  0.17330768425E+02  0.20684545603E+02  0.00000000000E+00 0.  1.
         12    1    5    5    0    0 -0.85842841720E+02  0.61473051870E+02  0.60431892503E+03  0.61347313938E+03  0.00000000000E+00 0. -1.
        -13    1    3    3    0    0  0.62671338953E+01 -0.34541126787E+02  0.13098495226E+02  0.37469147097E+02  0.00000000000E+00 0.  1.
         14    1    3    3    0    0  0.20652908342E+02  0.44032294770E+02  0.60280532146E+02  0.77454039026E+02  0.00000000000E+00 0. -1.
          5    1    4    4  501    0  0.83380802649E+02 -0.68483435366E+02  0.84907873429E+02  0.13738186249E+03  0.47000000000E+01 0.  1.
         -5    1    4    4    0  501  0.87538403248E+02 -0.19834834045E+02 -0.36583433997E+02  0.97040354120E+02  0.47000000000E+01 0.  1.
          1    1    1    2  502    0 -0.13485073930E+03  0.91021757389E+02  0.12779909114E+04  0.12883052635E+04  0.00000000000E+00 0. -1.
          1    1    1    2  503    0  0.18540665360E+02 -0.63232806534E+02 -0.74591877803E+03  0.74882372259E+03  0.00000000000E+00 0. -1.
<mgrwt>
<rscale>  0 0.10552712E+03</rscale>
<asrwt>0</asrwt>
<pdfrwt beam="1">  1        2 0.31588657E+00 0.16899585E+03</pdfrwt>
<pdfrwt beam="2">  1        2 0.12832403E+00 0.65894947E+02</pdfrwt>
<totfact> 0.40690162E+01</totfact>
</mgrwt>
</event>
<event>
13    1  0.1595792E-008  0.2904083E+03  0.7546771E-02  0.1285721E+00
          2   -1    0    0  503    0  0.00000000000E+00  0.00000000000E+00  0.28756045150E+04  0.28756045150E+04  0.00000000000E+00 0. -1.
         -1   -1    0    0    0  501 -0.00000000000E+00 -0.00000000000E+00 -0.54268434132E+03  0.54268434132E+03  0.00000000000E+00 0.  1.
         24    2    1    2    0    0  0.13085966786E+02  0.10472241500E+02 -0.14893028241E+03  0.17032103207E+03  0.80920421279E+02 0.  0.
         25    2    1    2    0    0 -0.85473384919E+02 -0.10751524537E+03 -0.26310810884E+02  0.18757013613E+03  0.12500027873E+03 0.  0.
         24    2    1    2    0    0  0.23456990269E+03 -0.12404555252E+03  0.30128861961E+03  0.40882631196E+03  0.77160758808E+02 0.  0.
        -13    1    5    5    0    0 -0.30141919455E+01 -0.11177315715E+02  0.49471034597E+01  0.12589343601E+02  0.00000000000E+00 0.  1.
         14    1    5    5    0    0  0.23758409463E+03 -0.11286823680E+03  0.29634151615E+03  0.39623696836E+03  0.00000000000E+00 0. -1.
        -13    1    3    3    0    0  0.25445818777E+01 -0.18898047850E+02 -0.13466821322E+03  0.13601153907E+03  0.00000000000E+00 0.  1.
         14    1    3    3    0    0  0.10541384909E+02  0.29370289350E+02 -0.14262069186E+02  0.34309492998E+02  0.00000000000E+00 0. -1.
          5    1    4    4  502    0 -0.61567885222E+02 -0.51950523418E+02  0.46232425139E+02  0.92999938217E+02  0.47000000000E+01 0. -1.
         -5    1    4    4    0  502 -0.23905499697E+02 -0.55564721953E+02 -0.72543236022E+02  0.94570197917E+02  0.47000000000E+01 0. -1.
          1    1    1    2  503    0 -0.16013889035E+03  0.25373469220E+03  0.24186970100E+04  0.24372363415E+04  0.00000000000E+00 0. -1.
         -2    1    1    2    0  501 -0.20435942029E+01 -0.32646135807E+02 -0.21182436265E+03  0.21433503463E+03  0.00000000000E+00 0.  1.
<mgrwt>
<rscale>  0 0.97464171E+02</rscale>
<asrwt>0</asrwt>
<pdfrwt beam="1">  1        2 0.42288301E+00 0.29040826E+03</pdfrwt>
<pdfrwt beam="2">  1       -1 0.79806522E-01 0.32710036E+02</pdfrwt>
<totfact> 0.58369761E+00</totfact>
</mgrwt>
</event>
<event>
13    1  0.1595792E-008  0.4318694E+02  0.7546771E-02  0.1508325E+00
          2   -1    0    0  503    0  0.00000000000E+00  0.00000000000E+00  0.13307240850E+04  0.13307240850E+04  0.00000000000E+00 0. -1.
          2   -1    0    0  502    0 -0.00000000000E+00 -0.00000000000E+00 -0.16075330405E+04  0.16075330405E+04  0.00000000000E+00 0. -1.
         24    2    1    2    0    0 -0.41905483186E+03  0.16428742110E+03 -0.43865464953E+03  0.63574826284E+03  0.95711249687E+02 0.  0.
         25    2    1    2    0    0  0.21366570391E+03 -0.34178632744E+03  0.31174085379E+03  0.52466930443E+03  0.12499836972E+03 0.  0.
         24    2    1    2    0    0  0.20214313663E+03  0.13980920644E+03  0.93084653145E+02  0.27626361759E+03  0.85137370548E+02 0.  0.
        -11    1    5    5    0    0  0.12140392564E+03  0.40160083419E+02  0.70554876125E+02  0.14604703354E+03  0.00000000000E+00 0.  1.
         12    1    5    5    0    0  0.80739210984E+02  0.99649123020E+02  0.22529777021E+02  0.13021658405E+03  0.00000000000E+00 0. -1.
        -11    1    3    3    0    0 -0.25727420780E+03  0.83300784027E+02 -0.32195217978E+03  0.42045480695E+03  0.00000000000E+00 0.  1.
         12    1    3    3    0    0 -0.16178062406E+03  0.80986637078E+02 -0.11670246975E+03  0.21529345590E+03  0.00000000000E+00 0. -1.
          5    1    4    4  501    0  0.16990546803E+03 -0.32374278539E+03  0.30592358160E+03  0.47674792809E+03  0.47000000000E+01 0.  1.
         -5    1    4    4    0  501  0.43760235885E+02 -0.18043542048E+02  0.58172721887E+01  0.47921376337E+02  0.47000000000E+01 0.  1.
          1    1    1    2  502    0 -0.32581667634E+02  0.28371169560E+02 -0.87119769386E+03  0.87226825582E+03  0.00000000000E+00 0. -1.
          1    1    1    2  503    0  0.35827658953E+02  0.93185303364E+01  0.62821788099E+03  0.62930768480E+03  0.00000000000E+00 0. -1.
<mgrwt>
<rscale>  0 0.39984578E+02</rscale>
<asrwt>0</asrwt>
<pdfrwt beam="1">  1        2 0.19569472E+00 0.37019673E+02</pdfrwt>
<pdfrwt beam="2">  1        2 0.23640192E+00 0.43186943E+02</pdfrwt>
<totfact> 0.49647191E+01</totfact>
</mgrwt>
</event>
<event>
13    1  0.1595792E-008  0.1103636E+03  0.7546771E-02  0.1269791E+00
          2   -1    0    0  503    0  0.00000000000E+00  0.00000000000E+00  0.32447222168E+04  0.32447222168E+04  0.00000000000E+00 0. -1.
          2   -1    0    0  502    0 -0.00000000000E+00 -0.00000000000E+00 -0.10103914525E+04  0.10103914525E+04  0.00000000000E+00 0. -1.
         24    2    1    2    0    0  0.21394031353E+03 -0.14909463267E+03 -0.50866213079E+03  0.57716230367E+03  0.79871736080E+02 0.  0.
         25    2    1    2    0    0 -0.34282992658E+02  0.30275511642E+03  0.93010694179E+02  0.34221936104E+03  0.12500847065E+03 0.  0.
         24    2    1    2    0    0  0.36206169395E+01  0.25094815879E+02 -0.49885198360E+01  0.64003748238E+02  0.58555408011E+02 0.  0.
        -11    1    3    3    0    0  0.10556610169E+03 -0.50335376958E+02 -0.15390642693E+03  0.19330038864E+03  0.00000000000E+00 0.  1.
         12    1    3    3    0    0  0.10837421184E+03 -0.98759255709E+02 -0.35475570387E+03  0.38386191502E+03  0.00000000000E+00 0. -1.
        -11    1    5    5    0    0  0.31066739503E+02  0.13993301801E+02 -0.63211519040E+00  0.34078649742E+02  0.00000000000E+00 0.  1.
         12    1    5    5    0    0 -0.27446122563E+02  0.11101514077E+02 -0.43564046456E+01  0.29925098496E+02  0.00000000000E+00 0. -1.
          5    1    4    4  501    0 -0.58585340037E+02  0.13392788738E+03  0.89665560785E+02  0.17155443415E+03  0.47000000000E+01 0.  1.
         -5    1    4    4    0  501  0.24302347379E+02  0.16882722904E+03  0.33451333941E+01  0.17066492689E+03  0.47000000000E+01 0.  1.
          1    1    1    2  502    0 -0.17146322920E+03 -0.79216445533E+02 -0.27852091026E+03  0.33652456324E+03  0.00000000000E+00 0. -1.
          1    1    1    2  503    0 -0.11814708612E+02 -0.99538854098E+02  0.29334916310E+04  0.29352036931E+04  0.00000000000E+00 0. -1.
<mgrwt>
<rscale>  0 0.10516712E+03</rscale>
<asrwt>0</asrwt>
<pdfrwt beam="1">  1        2 0.47716503E+00 0.10021534E+03</pdfrwt>
<pdfrwt beam="2">  1        2 0.14858698E+00 0.11036357E+03</pdfrwt>
<totfact> 0.95533096E+00</totfact>
</mgrwt>
</event>
<event>
13    1  0.1595792E-008  0.3473826E+02  0.7546771E-02  0.1673312E+00
          2   -1    0    0  503    0  0.00000000000E+00  0.00000000000E+00  0.27879464186E+04  0.27879464186E+04  0.00000000000E+00 0. -1.
          2   -1    0    0  502    0 -0.00000000000E+00 -0.00000000000E+00 -0.11984351660E+04  0.11984351660E+04  0.00000000000E+00 0. -1.
         24    2    1    2    0    0  0.20748838895E+03  0.61370285524E+02 -0.64594480266E+02  0.24105126274E+03  0.84353547023E+02 0.  0.
         25    2    1    2    0    0  0.28483564324E+02 -0.22610700642E+03  0.66486644271E+02  0.26829206151E+03  0.12499785844E+03 0.  0.
         24    2    1    2    0    0 -0.21529391049E+03  0.14945641586E+03  0.57591381122E+03  0.63777823101E+03  0.79972907046E+02 0.  0.
        -11    1    3    3    0    0  0.12080458947E+03  0.76572369515E+02 -0.51799721437E+02  0.15211932076E+03  0.00000000000E+00 0.  1.
         12    1    3    3    0    0  0.86683799482E+02 -0.15202083991E+02 -0.12794758829E+02  0.88931941977E+02  0.00000000000E+00 0. -1.
        -13    1    5    5    0    0 -0.88195769878E+02  0.58333284041E+02  0.32833975923E+03  0.34494675436E+03  0.00000000000E+00 0.  1.
         14    1    5    5    0    0 -0.12709814061E+03  0.91123131820E+02  0.24757405199E+03  0.29283147665E+03  0.00000000000E+00 0. -1.
          5    1    4    4  501    0  0.38177397500E+02 -0.21143873329E+03  0.94594705720E+02  0.23480651602E+03  0.47000000000E+01 0.  1.
         -5    1    4    4    0  501 -0.96938331766E+01 -0.14668273121E+02 -0.28108061449E+02  0.33485545485E+02  0.47000000000E+01 0.  1.
          1    1    1    2  502    0 -0.53902466585E+01 -0.15920432596E+02 -0.91354332304E+03  0.91369793587E+03  0.00000000000E+00 0. -1.
          1    1    1    2  503    0 -0.15287796125E+02  0.31200737626E+02  0.19252486004E+04  0.19255620935E+04  0.00000000000E+00 0. -1.
<mgrwt>
<rscale>  0 0.24163753E+02</rscale>
<asrwt>0</asrwt>
<pdfrwt beam="1">  1        2 0.40999212E+00 0.34738261E+02</pdfrwt>
<pdfrwt beam="2">  1        2 0.17624047E+00 0.16808181E+02</pdfrwt>
<totfact> 0.17550916E+01</totfact>
</mgrwt>
</event>
<event>
13    1  0.1595792E-008  0.2512246E+03  0.7546771E-02  0.1237879E+00
          2   -1    0    0  502    0  0.00000000000E+00  0.00000000000E+00  0.42275178072E+04  0.42275178072E+04  0.00000000000E+00 0. -1.
          2   -1    0    0  503    0 -0.00000000000E+00 -0.00000000000E+00 -0.25483604009E+04  0.25483604009E+04  0.00000000000E+00 0. -1.
         24    2    1    2    0    0 -0.51072927910E+01 -0.48335158301E+03  0.72924079585E+02  0.49524135261E+03  0.79317329257E+02 0.  0.
         25    2    1    2    0    0  0.15711239344E+03  0.13871194828E+03  0.11879316296E+03  0.27140681117E+03  0.12499813124E+03 0.  0.
         24    2    1    2    0    0  0.41622347207E+02  0.51302713258E+03  0.13266039079E+04  0.14264645118E+04  0.99969078120E+02 0.  0.
        -11    1    5    5    0    0  0.15940500224E+02  0.31785781871E+03  0.68462342627E+03  0.75498140921E+03  0.00000000000E+00 0.  1.
         12    1    5    5    0    0  0.25681846983E+02  0.19516931387E+03  0.64198048159E+03  0.67148310260E+03  0.00000000000E+00 0. -1.
        -11    1    3    3    0    0 -0.36414920635E+02 -0.35246575527E+03  0.39211065045E+02  0.35650478637E+03  0.00000000000E+00 0.  1.
         12    1    3    3    0    0  0.31307627844E+02 -0.13088582773E+03  0.33713014540E+02  0.13873656624E+03  0.00000000000E+00 0. -1.
          5    1    4    4  501    0  0.10971489187E+02 -0.15379236916E+02 -0.11107861427E+02  0.22413591604E+02  0.47000000000E+01 0.  1.
         -5    1    4    4    0  501  0.14614090425E+03  0.15409118520E+03  0.12990102438E+03  0.24899321956E+03  0.47000000000E+01 0.  1.
          1    1    1    2  502    0 -0.14894017595E+03 -0.20907595534E+03  0.23644396105E+04  0.23783335768E+04  0.00000000000E+00 0. -1.
          1    1    1    2  503    0 -0.44687271904E+02  0.40688457479E+02 -0.22036033545E+04  0.22044319556E+04  0.00000000000E+00 0. -1.
<mgrwt>
<rscale>  0 0.12321928E+03</rscale>
<asrwt>0</asrwt>
<pdfrwt beam="1">  1        2 0.62169380E+00 0.25122455E+03</pdfrwt>
<pdfrwt beam="2">  1        2 0.37475888E+00 0.60435940E+02</pdfrwt>
<totfact> 0.35001392E-01</totfact>
</mgrwt>
</event>
<event>
13    1  0.1595792E-008  0.1084222E+03  0.7546771E-02  0.1346032E+00
          2   -1    0    0  503    0  0.00000000000E+00  0.00000000000E+00  0.26427516304E+04  0.26427516304E+04  0.00000000000E+00 0. -1.
          2   -1    0    0  502    0 -0.00000000000E+00 -0.00000000000E+00 -0.11856680263E+04  0.11856680263E+04  0.00000000000E+00 0. -1.
         24    2    1    2    0    0  0.14384284315E+02  0.38844702562E+02 -0.83791296591E+02  0.12076867598E+03  0.76474003172E+02 0.  0.
         25    2    1    2    0    0 -0.92546766789E+02 -0.12044087903E+03  0.83594243943E+02  0.21373814403E+03  0.12500034883E+03 0.  0.
         24    2    1    2    0    0  0.73124864898E+02  0.22630730119E+02  0.48579143340E+03  0.49838703776E+03  0.80851263645E+02 0.  0.
        -11    1    5    5    0    0  0.14328062738E+02  0.42764809076E+02  0.27319522731E+03  0.27689303802E+03  0.00000000000E+00 0.  1.
         12    1    5    5    0    0  0.58796802160E+02 -0.20134078956E+02  0.21259620608E+03  0.22149399974E+03  0.00000000000E+00 0. -1.
        -13    1    3    3    0    0  0.31140843023E+02  0.49795450898E+02 -0.35830193970E+02  0.68797833064E+02  0.00000000000E+00 0.  1.
         14    1    3    3    0    0 -0.16756558707E+02 -0.10950748336E+02 -0.47961102621E+02  0.51970842917E+02  0.00000000000E+00 0. -1.
          5    1    4    4  501    0 -0.83908426372E+02 -0.88159328489E+02  0.11509387104E+03  0.16757499923E+03  0.47000000000E+01 0.  1.
         -5    1    4    4    0  501 -0.86383404169E+01 -0.32281550541E+02 -0.31499627096E+02  0.46163144799E+02  0.47000000000E+01 0.  1.
          1    1    1    2  502    0 -0.20614209977E+02 -0.46567020270E+02 -0.10098895563E+04  0.10111727592E+04  0.00000000000E+00 0. -1.
          1    1    1    2  503    0  0.25651827553E+02  0.10553246662E+03  0.19813787797E+04  0.19843530397E+04  0.00000000000E+00 0. -1.
<mgrwt>
<rscale>  0 0.74306669E+02</rscale>
<asrwt>0</asrwt>
<pdfrwt beam="1">  1        2 0.38863994E+00 0.10842216E+03</pdfrwt>
<pdfrwt beam="2">  1        2 0.17436295E+00 0.50925760E+02</pdfrwt>
<totfact> 0.16495532E+01</totfact>
</mgrwt>
</event>
<event>
13    1  0.1595792E-008  0.1547498E+03  0.7546771E-02  0.1319972E+00
          2   -1    0    0  503    0  0.00000000000E+00  0.00000000000E+00  0.46341159447E+03  0.46341159447E+03  0.00000000000E+00 0. -1.
          2   -1    0    0  502    0 -0.00000000000E+00 -0.00000000000E+00 -0.14544979342E+04  0.14544979342E+04  0.00000000000E+00 0. -1.
         24    2    1    2    0    0  0.46910141761E+02  0.48735852741E+02 -0.36228799904E+03  0.37685155143E+03  0.78668626682E+02 0.  0.
         25    2    1    2    0    0 -0.30371660428E+02  0.10451494523E+03 -0.31240022393E+03  0.35364582320E+03  0.12500262727E+03 0.  0.
         24    2    1    2    0    0  0.39649903487E+02  0.18936856238E+02 -0.55823112310E+01  0.95738267005E+02  0.84875993071E+02 0.  0.
        -13    1    3    3    0    0  0.19723329507E+02  0.48507497928E+02 -0.33219140292E+03  0.33629319835E+03  0.00000000000E+00 0.  1.
         14    1    3    3    0    0  0.27186812254E+02  0.22835481327E+00 -0.30096596114E+02  0.40558353074E+02  0.00000000000E+00 0. -1.
        -13    1    5    5    0    0 -0.24766171568E+02  0.11001913198E+02 -0.13636578270E+02  0.30337462238E+02  0.00000000000E+00 0.  1.
         14    1    5    5    0    0  0.64416075055E+02  0.79349430402E+01  0.80542670387E+01  0.65400804767E+02  0.00000000000E+00 0. -1.
          5    1    4    4  501    0  0.31779609172E+02 -0.10350168878E+02 -0.83549571905E+02  0.90109325380E+02  0.47000000000E+01 0.  1.
         -5    1    4    4    0  501 -0.62151269600E+02  0.11486511411E+03 -0.22885065202E+03  0.26353649782E+03  0.47000000000E+01 0.  1.
          1    1    1    2  502    0 -0.42045579769E+02 -0.15541821484E+02 -0.68464187941E+03  0.68610777727E+03  0.00000000000E+00 0. -1.
          1    1    1    2  503    0 -0.14142805051E+02 -0.15664583273E+03  0.37382607390E+03  0.40556610974E+03  0.00000000000E+00 0. -1.
<mgrwt>
<rscale>  0 0.83287620E+02</rscale>
<asrwt>0</asrwt>
<pdfrwt beam="1">  1        2 0.68148765E-01 0.15474976E+03</pdfrwt>
<pdfrwt beam="2">  1        2 0.21389675E+00 0.44826097E+02</pdfrwt>
<totfact> 0.20009329E+02</totfact>
</mgrwt>
</event>
<event>
13    1  0.1595792E-008  0.1295336E+03  0.7546771E-02  0.1264833E+00
          2   -1    0    0  503    0  0.00000000000E+00  0.00000000000E+00  0.24207159069E+04  0.24207159069E+04  0.00000000000E+00 0. -1.
          2   -1    0    0  502    0 -0.00000000000E+00 -0.00000000000E+00 -0.37682831646E+03  0.37682831646E+03  0.00000000000E+00 0. -1.
         24    2    1    2    0    0 -0.12003545320E+03 -0.87500327928E+02 -0.59696724408E+01  0.16901870460E+03  0.80416839667E+02 0.  0.
         25    2    1    2    0    0  0.86005940402E+02 -0.99807099740E+02  0.14093865002E+03  0.22988676976E+03  0.12500297955E+03 0.  0.
         24    2    1    2    0    0  0.48094707267E+01  0.22139885858E+03  0.31588038615E+03  0.39402102654E+03  0.80197041176E+02 0.  0.
        -13    1    3    3    0    0 -0.10487103722E+03 -0.94799590731E+02 -0.25056998320E+02  0.14357141086E+03  0.00000000000E+00 0.  1.
         14    1    3    3    0    0 -0.15164415982E+02  0.72992628036E+01  0.19087325880E+02  0.25447293742E+02  0.00000000000E+00 0. -1.
        -13    1    5    5    0    0 -0.95635389004E+01  0.22086073666E+03  0.29887202413E+03  0.37174643654E+03  0.00000000000E+00 0.  1.
         14    1    5    5    0    0  0.14373009627E+02  0.53812191601E+00  0.17008362024E+02  0.22274590000E+02  0.00000000000E+00 0. -1.
          5    1    4    4  501    0  0.78003128978E+02 -0.11293451640E+03  0.15601303442E+03  0.20784814176E+03  0.47000000000E+01 0. -1.
         -5    1    4    4    0  501  0.80028114238E+01  0.13127416662E+02 -0.15074384399E+02  0.22038627996E+02  0.47000000000E+01 0. -1.
          1    1    1    2  502    0 -0.83853100100E+02  0.31560788160E+02 -0.19353416979E+03  0.21326720475E+03  0.00000000000E+00 0. -1.
          1    1    1    2  503    0  0.11307314217E+03 -0.65652219071E+02  0.17865723965E+04  0.17913505177E+04  0.00000000000E+00 0. -1.
<mgrwt>
<rscale>  0 0.10772967E+03</rscale>
<asrwt>0</asrwt>
<pdfrwt beam="1">  1        2 0.35598762E+00 0.12953362E+03</pdfrwt>
<pdfrwt beam="2">  1        2 0.55415930E-01 0.89595903E+02</pdfrwt>
<totfact> 0.77176974E+01</totfact>
</mgrwt>
</event>
<event>
13    1  0.1595792E-008  0.1664549E+03  0.7546771E-02  0.1222340E+00
          2   -1    0    0  502    0  0.00000000000E+00  0.00000000000E+00  0.62774972290E+03  0.62774972290E+03  0.00000000000E+00 0. -1.
          2   -1    0    0  503    0 -0.00000000000E+00 -0.00000000000E+00 -0.18671307118E+04  0.18671307118E+04  0.00000000000E+00 0. -1.
         24    2    1    2    0    0 -0.12400566502E+03 -0.13839202516E+03 -0.56855184439E+02  0.21022797774E+03  0.80209307693E+02 0.  0.
         25    2    1    2    0    0  0.66887205094E+02  0.66848111640E+02 -0.79135000250E+02  0.17558202957E+03  0.12499653038E+03 0.  0.
         24    2    1    2    0    0 -0.57938344405E+02 -0.11245929921E+03  0.16081316438E+03  0.21991410160E+03  0.80606404924E+02 0.  0.
        -11    1    3    3    0    0 -0.23567725169E+02  0.24699165242E+01 -0.24762139076E+02  0.34273921411E+02  0.00000000000E+00 0.  1.
         12    1    3    3    0    0 -0.10043793985E+03 -0.14086194169E+03 -0.32093045364E+02  0.17595405633E+03  0.00000000000E+00 0. -1.
        -13    1    5    5    0    0 -0.36867474096E+02 -0.32471665104E+01  0.26465642792E+02  0.45499285543E+02  0.00000000000E+00 0.  1.
         14    1    5    5    0    0 -0.21070870310E+02 -0.10921213270E+03  0.13434752158E+03  0.17441481606E+03  0.00000000000E+00 0. -1.
          5    1    4    4  501    0 -0.15679982612E+02  0.50576099191E+01 -0.69861004382E+02  0.71931156017E+02  0.47000000000E+01 0.  1.
         -5    1    4    4    0  501  0.82567187706E+02  0.61790501721E+02 -0.92739958680E+01  0.10365087355E+03  0.47000000000E+01 0.  1.
          1    1    1    2  502    0  0.10577570952E+03  0.16685898451E+02  0.29868949942E+03  0.31730480141E+03  0.00000000000E+00 0. -1.
          1    1    1    2  503    0  0.92810948062E+01  0.16731731428E+03 -0.15628934680E+04  0.15718515244E+04  0.00000000000E+00 0. -1.
<mgrwt>
<rscale>  0 0.13350881E+03</rscale>
<asrwt>0</asrwt>
<pdfrwt beam="1">  1        2 0.92316136E-01 0.10708371E+03</pdfrwt>
<pdfrwt beam="2">  1        2 0.27457804E+00 0.16645486E+03</pdfrwt>
<totfact> 0.81158371E+01</totfact>
</mgrwt>
</event>
<event>
13    1  0.1595792E-008  0.1082824E+03  0.7546771E-02  0.1376230E+00
         -3   -1    0    0    0  501  0.00000000000E+00  0.00000000000E+00  0.87241981935E+03  0.87241981935E+03  0.00000000000E+00 0.  1.
         -3   -1    0    0    0  502 -0.00000000000E+00 -0.00000000000E+00 -0.12850230552E+04  0.12850230552E+04  0.00000000000E+00 0.  1.
         24    2    1    2    0    0 -0.53818690299E+02 -0.56910875041E+02 -0.30546002199E+03  0.32524163451E+03  0.79630375216E+02 0.  0.
         25    2    1    2    0    0  0.54744710084E+02 -0.13018223033E+03  0.12270377019E+02  0.18899744110E+03  0.12500029686E+03 0.  0.
         24    2    1    2    0    0  0.50872393266E+02  0.66860513818E+02  0.88059209493E+01  0.11647524597E+03  0.80191084145E+02 0.  0.
        -13    1    3    3    0    0 -0.66419247730E+02 -0.38546450574E+02 -0.15328778138E+03  0.17144821154E+03  0.00000000000E+00 0.  1.
         14    1    3    3    0    0  0.12600557431E+02 -0.18364424467E+02 -0.15217224061E+03  0.15379342297E+03  0.00000000000E+00 0. -1.
        -13    1    5    5    0    0 -0.10494294560E+02 -0.10703342124E+02  0.91667924682E+01  0.17570481925E+02  0.00000000000E+00 0.  1.
         14    1    5    5    0    0  0.61366687826E+02  0.77563855943E+02 -0.36087151890E+00  0.98904764049E+02  0.00000000000E+00 0. -1.
          5    1    4    4  503    0  0.23146977131E+02 -0.44601932205E+02  0.65949096547E+02  0.83045097640E+02  0.47000000000E+01 0.  1.
         -5    1    4    4    0  503  0.31597732953E+02 -0.85580298122E+02 -0.53678719528E+02  0.10595234346E+03  0.47000000000E+01 0.  1.
         -4    1    1    2    0  502 -0.14292230697E+02  0.13287227876E+03 -0.82151020799E+03  0.83230903645E+03  0.00000000000E+00 0.  1.
         -4    1    1    2    0  501 -0.37506182354E+02 -0.12639687207E+02  0.69329069621E+03  0.69441951647E+03  0.00000000000E+00 0.  1.
<mgrwt>
<rscale>  0 0.65465102E+02</rscale>
<asrwt>0</asrwt>
<pdfrwt beam="1">  1       -3 0.12829703E+00 0.39578724E+02</pdfrwt>
<pdfrwt beam="2">  1       -3 0.18897398E+00 0.10828241E+03</pdfrwt>
<totfact> 0.23331095E-01</totfact>
</mgrwt>
</event>
<event>
13    1  0.1595792E-008  0.1193673E+03  0.7546771E-02  0.1274921E+00
          2   -1    0    0  502    0  0.00000000000E+00  0.00000000000E+00  0.69716421295E+03  0.69716421295E+03  0.00000000000E+00 0. -1.
          2   -1    0    0  503    0 -0.00000000000E+00 -0.00000000000E+00 -0.14176876943E+04  0.14176876943E+04  0.00000000000E+00 0. -1.
         24    2    1    2    0    0  0.81394558474E+02 -0.16633159874E+03 -0.57114895397E+03  0.60561203813E+03  0.79142518372E+02 0.  0.
         25    2    1    2    0    0 -0.65146383197E+02  0.20315111617E+03 -0.48104184788E+01  0.24731134804E+03  0.12500134198E+03 0.  0.
         24    2    1    2    0    0  0.89650044737E+02  0.47113712955E+02  0.30861432807E+03  0.33456742853E+03  0.80222990928E+02 0.  0.
        -11    1    5    5    0    0  0.54933918260E+02  0.41883210554E+02  0.28247018747E+03  0.29079433542E+03  0.00000000000E+00 0.  1.
         12    1    5    5    0    0  0.34716126477E+02  0.52305024012E+01  0.26144140600E+02  0.43773093113E+02  0.00000000000E+00 0. -1.
        -13    1    3    3    0    0 -0.37272807233E+01 -0.27684334111E+02 -0.17723918846E+03  0.17942699045E+03  0.00000000000E+00 0.  1.
         14    1    3    3    0    0  0.85121839197E+02 -0.13864726463E+03 -0.39390976552E+03  0.42618504768E+03  0.00000000000E+00 0. -1.
          5    1    4    4  501    0 -0.98100788763E+02  0.16053316306E+03 -0.24456365910E+02  0.18977582837E+03  0.47000000000E+01 0.  1.
         -5    1    4    4    0  501  0.32954405567E+02  0.42617953110E+02  0.19645947431E+02  0.57535519673E+02  0.47000000000E+01 0.  1.
          1    1    1    2  502    0  0.13601587261E+02 -0.87133346484E+02  0.22346602411E+03  0.24023798030E+03  0.00000000000E+00 0. -1.
          1    1    1    2  503    0 -0.11949980728E+03  0.32001160968E+01 -0.67664446106E+03  0.68712311224E+03  0.00000000000E+00 0. -1.
<mgrwt>
<rscale>  0 0.10260034E+03</rscale>
<asrwt>0</asrwt>
<pdfrwt beam="1">  1        2 0.10252415E+00 0.88188566E+02</pdfrwt>
<pdfrwt beam="2">  1        2 0.20848348E+00 0.11936728E+03</pdfrwt>
<totfact> 0.12433522E+02</totfact>
</mgrwt>
</event>
<event>
13    1  0.1595792E-008  0.1324752E+03  0.7546771E-02  0.1370611E+00
          2   -1    0    0  503    0  0.00000000000E+00  0.00000000000E+00  0.86775788063E+03  0.86775788063E+03  0.00000000000E+00 0. -1.
         -3   -1    0    0    0  501 -0.00000000000E+00 -0.00000000000E+00 -0.65432182653E+03  0.65432182653E+03  0.00000000000E+00 0.  1.
         24    2    1    2    0    0 -0.32718910745E+02 -0.14263880804E+02  0.31165401246E+02  0.93429217372E+02  0.80521742455E+02 0.  0.
         25    2    1    2    0    0 -0.41981219812E+02 -0.86632552582E+01  0.26359447059E+03  0.29486392114E+03  0.12500084902E+03 0.  0.
         24    2    1    2    0    0 -0.21501687865E+02 -0.22398090450E+02  0.19145613713E+03  0.21043769654E+03  0.81636846129E+02 0.  0.
        -11    1    5    5    0    0 -0.36689918865E+02 -0.25801994303E+02  0.18951670660E+03  0.19475234309E+03  0.00000000000E+00 0.  1.
         12    1    5    5    0    0  0.15188231000E+02  0.34039038530E+01  0.19394305261E+01  0.15685353458E+02  0.00000000000E+00 0. -1.
        -13    1    3    3    0    0  0.22192518649E+02 -0.23257487969E+02  0.78007293720E+01  0.33079752257E+02  0.00000000000E+00 0.  1.
         14    1    3    3    0    0 -0.54911429394E+02  0.89936071652E+01  0.23364671874E+02  0.60349465115E+02  0.00000000000E+00 0. -1.
          5    1    4    4  502    0  0.27676552204E+01  0.46257147657E+02  0.43987995054E+02  0.64065726669E+02  0.47000000000E+01 0.  1.
         -5    1    4    4    0  502 -0.44748875032E+02 -0.54920402915E+02  0.21960647554E+03  0.23079819447E+03  0.47000000000E+01 0.  1.
          1    1    1    2  503    0 -0.33157861308E+02  0.69730254186E+01  0.31675952875E+03  0.31856658002E+03  0.00000000000E+00 0. -1.
         -4    1    1    2    0  501  0.12935967973E+03  0.38352201094E+02 -0.58953948362E+03  0.60478229208E+03  0.00000000000E+00 0.  1.
<mgrwt>
<rscale>  0 0.66997583E+02</rscale>
<asrwt>0</asrwt>
<pdfrwt beam="1">  1        2 0.12761145E+00 0.33883135E+02</pdfrwt>
<pdfrwt beam="2">  1       -3 0.96223797E-01 0.13247523E+03</pdfrwt>
<totfact> 0.22338613E+01</totfact>
</mgrwt>
</event>
<event>
13    1  0.1595792E-008  0.3391420E+02  0.7546771E-02  0.1614464E+00
          2   -1    0    0  502    0  0.00000000000E+00  0.00000000000E+00  0.25134551618E+03  0.25134551618E+03  0.00000000000E+00 0. -1.
          2   -1    0    0  503    0 -0.00000000000E+00 -0.00000000000E+00 -0.11689596936E+04  0.11689596936E+04  0.00000000000E+00 0. -1.
         24    2    1    2    0    0 -0.56258283770E+02  0.23301736987E+02 -0.81106637995E+03  0.81717049458E+03  0.78936551039E+02 0.  0.
         25    2    1    2    0    0  0.63346954612E+02 -0.40029175793E+02 -0.20639695076E+03  0.25266725444E+03  0.12500347440E+03 0.  0.
         24    2    1    2    0    0  0.20751076498E+02 -0.22826658943E+02  0.30619013265E+02  0.90607037399E+02  0.79501243503E+02 0.  0.
        -11    1    3    3    0    0  0.10231169884E+02 -0.18433325902E+02 -0.15658048372E+03  0.15799339297E+03  0.00000000000E+00 0.  1.
         12    1    3    3    0    0 -0.66489453654E+02  0.41735062889E+02 -0.65448589623E+03  0.65917710160E+03  0.00000000000E+00 0. -1.
        -13    1    5    5    0    0  0.11899756376E+01 -0.49015897746E+02  0.54109818232E+01  0.49328014335E+02  0.00000000000E+00 0.  1.
         14    1    5    5    0    0  0.19561100861E+02  0.26189238803E+02  0.25208031442E+02  0.41279023065E+02  0.00000000000E+00 0. -1.
          5    1    4    4  501    0  0.38886722904E+02 -0.64451345537E+02 -0.45608624928E+02  0.88138469624E+02  0.47000000000E+01 0.  1.
         -5    1    4    4    0  501  0.24460231708E+02  0.24422169745E+02 -0.16078832583E+03  0.16452878482E+03  0.47000000000E+01 0.  1.
          1    1    1    2  502    0 -0.45220254018E+01  0.33596442070E+02  0.16123490528E+03  0.16476002037E+03  0.00000000000E+00 0. -1.
          1    1    1    2  503    0 -0.23317721939E+02  0.59576556785E+01 -0.92004765225E+02  0.95100402952E+02  0.00000000000E+00 0. -1.
<mgrwt>
<rscale>  0 0.28569311E+02</rscale>
<asrwt>0</asrwt>
<pdfrwt beam="1">  1        2 0.36962576E-01 0.33914199E+02</pdfrwt>
<pdfrwt beam="2">  1        2 0.17190584E+00 0.24066778E+02</pdfrwt>
<totfact> 0.53910124E+02</totfact>
</mgrwt>
</event>
<event>
13    1  0.1595792E-008  0.2554396E+03  0.7546771E-02  0.1175273E+00
          2   -1    0    0  503    0  0.00000000000E+00  0.00000000000E+00  0.99623966638E+03  0.99623966638E+03  0.00000000000E+00 0. -1.
          2   -1    0    0  502    0 -0.00000000000E+00 -0.00000000000E+00 -0.16096854244E+04  0.16096854244E+04  0.00000000000E+00 0. -1.
         24    2    1    2    0    0  0.10087444708E+03 -0.80842656179E+02 -0.25367916469E+03  0.29561277231E+03  0.79514800041E+02 0.  0.
         25    2    1    2    0    0 -0.38634828408E+03  0.16916062180E+03  0.27024062107E+03  0.51626490016E+03  0.12497656289E+03 0.  0.
         24    2    1    2    0    0 -0.82307878593E+02 -0.15058822647E+02  0.15462681615E+03  0.19441502840E+03  0.82984311629E+02 0.  0.
        -11    1    3    3    0    0  0.42389248867E+02 -0.83049332439E+02 -0.15560208761E+03  0.18140024726E+03  0.00000000000E+00 0.  1.
         12    1    3    3    0    0  0.58485198217E+02  0.22066762595E+01 -0.98077077078E+02  0.11421252505E+03  0.00000000000E+00 0. -1.
        -11    1    5    5    0    0 -0.86526515342E+02  0.56746058664E+01  0.84153226125E+02  0.12083378864E+03  0.00000000000E+00 0.  1.
         12    1    5    5    0    0  0.42186367498E+01 -0.20733428513E+02  0.70473590021E+02  0.73581239759E+02  0.00000000000E+00 0. -1.
          5    1    4    4  501    0 -0.16602109144E+03  0.83558482407E+01  0.11736773312E+03  0.20354384731E+03  0.47000000000E+01 0.  1.
         -5    1    4    4    0  501 -0.22032719265E+03  0.16080477356E+03  0.15287288795E+03  0.31272105284E+03  0.47000000000E+01 0.  1.
          1    1    1    2  502    0  0.34020279215E+03  0.39909719545E+02 -0.11584807298E+04  0.12080597364E+04  0.00000000000E+00 0. -1.
          1    1    1    2  503    0  0.27578923437E+02 -0.11316886252E+03  0.37384669922E+03  0.39157265351E+03  0.00000000000E+00 0. -1.
<mgrwt>
<rscale>  0 0.17249297E+03</rscale>
<asrwt>0</asrwt>
<pdfrwt beam="1">  1        2 0.14650583E+00 0.11648085E+03</pdfrwt>
<pdfrwt beam="2">  1        2 0.23671844E+00 0.25543962E+03</pdfrwt>
<totfact> 0.59913804E+01</totfact>
</mgrwt>
</event>
<event>
13    1  0.1595792E-008  0.6871719E+02  0.7546771E-02  0.1408062E+00
          2   -1    0    0  503    0  0.00000000000E+00  0.00000000000E+00  0.46615154502E+04  0.46615154502E+04  0.00000000000E+00 0. -1.
         -1   -1    0    0    0  501 -0.00000000000E+00 -0.00000000000E+00 -0.65435075083E+03  0.65435075083E+03  0.00000000000E+00 0.  1.
         24    2    1    2    0    0  0.42308701567E+02  0.13561691931E+03  0.21798557661E+02  0.16537380633E+03  0.81800633700E+02 0.  0.
         25    2    1    2    0    0  0.43360991524E+03 -0.20739233532E+03  0.12984004109E+03  0.51332797775E+03  0.12497214543E+03 0.  0.
         24    2    1    2    0    0 -0.52467086750E+03 -0.22809259646E+02  0.37905513566E+04  0.38276110825E+04  0.80791275123E+02 0.  0.
        -11    1    5    5    0    0 -0.47417356402E+02  0.12509492150E+02  0.50755633711E+03  0.50991992354E+03  0.00000000000E+00 0.  1.
         12    1    5    5    0    0 -0.47725351110E+03 -0.35318751796E+02  0.32829950195E+04  0.33176911589E+04  0.00000000000E+00 0. -1.
        -13    1    3    3    0    0 -0.18339608263E+02  0.61283457135E+01  0.10340426091E+02  0.21927659797E+02  0.00000000000E+00 0.  1.
         14    1    3    3    0    0  0.60648309829E+02  0.12948857360E+03  0.11458131569E+02  0.14344614654E+03  0.00000000000E+00 0. -1.
          5    1    4    4  502    0 -0.71252744484E+00 -0.13661644774E+02  0.20898404898E+02  0.25416167307E+02  0.47000000000E+01 0. -1.
         -5    1    4    4    0  502  0.43432244268E+03 -0.19373069055E+03  0.10894163619E+03  0.48791181045E+03  0.47000000000E+01 0. -1.
          1    1    1    2  503    0  0.40488415911E+02  0.26389738639E+02  0.43273854131E+03  0.43542895547E+03  0.00000000000E+00 0. -1.
         -2    1    1    2    0  501  0.82638347859E+01  0.68194937018E+02 -0.36776379727E+03  0.37412437903E+03  0.00000000000E+00 0.  1.
<mgrwt>
<rscale>  0 0.57628641E+02</rscale>
<asrwt>0</asrwt>
<pdfrwt beam="1">  1        2 0.68551696E+00 0.48329392E+02</pdfrwt>
<pdfrwt beam="2">  1       -1 0.96228054E-01 0.68717195E+02</pdfrwt>
<totfact> 0.38164978E-01</totfact>
</mgrwt>
</event>
<event>
13    1  0.1595792E-008  0.1326189E+03  0.7546771E-02  0.1340826E+00
          2   -1    0    0  503    0  0.00000000000E+00  0.00000000000E+00  0.12584102845E+04  0.12584102845E+04  0.00000000000E+00 0. -1.
          2   -1    0    0  502    0 -0.00000000000E+00 -0.00000000000E+00 -0.18549686318E+03  0.18549686318E+03  0.00000000000E+00 0. -1.
         24    2    1    2    0    0  0.82797469835E+01  0.47153497672E+02  0.60692005301E+02  0.11033700367E+03  0.78732003146E+02 0.  0.
         25    2    1    2    0    0 -0.67446985378E+02 -0.70047573298E+02  0.28934006910E+03  0.32984526885E+03  0.12499786972E+03 0.  0.
         24    2    1    2    0    0 -0.75058938099E+01 -0.42719395930E+02  0.13213651049E+03  0.16214634357E+03  0.83367224360E+02 0.  0.
        -11    1    3    3    0    0 -0.26825891551E+01  0.56463951813E+02  0.96979471933E+01  0.57353503107E+02  0.00000000000E+00 0.  1.
         12    1    3    3    0    0  0.10962336139E+02 -0.93104541413E+01  0.50994058107E+02  0.52983500566E+02  0.00000000000E+00 0. -1.
        -13    1    5    5    0    0 -0.33747623024E+02 -0.11830595559E+02  0.11062319019E+03  0.11625986091E+03  0.00000000000E+00 0.  1.
         14    1    5    5    0    0  0.26241729214E+02 -0.30888800372E+02  0.21513320306E+02  0.45886482663E+02  0.00000000000E+00 0. -1.
          5    1    4    4  501    0  0.23184254069E+02 -0.35743761257E+02  0.28309883918E+02  0.51367943632E+02  0.47000000000E+01 0. -1.
         -5    1    4    4    0  501 -0.90631239447E+02 -0.34303812041E+02  0.26103018518E+03  0.27847732522E+03  0.47000000000E+01 0. -1.
          1    1    1    2  502    0  0.94215905277E+02  0.99340493404E+02 -0.87143272359E+02  0.16229331580E+03  0.00000000000E+00 0. -1.
          1    1    1    2  503    0 -0.27542773073E+02 -0.33727021846E+02  0.67788810880E+03  0.67928521580E+03  0.00000000000E+00 0. -1.
<mgrwt>
<rscale>  0 0.75992182E+02</rscale>
<asrwt>0</asrwt>
<pdfrwt beam="1">  1        2 0.18506033E+00 0.43544418E+02</pdfrwt>
<pdfrwt beam="2">  1        2 0.27278951E-01 0.13261887E+03</pdfrwt>
<totfact> 0.66553286E+02</totfact>
</mgrwt>
</event>
<event>
13    1  0.1609408E-008  0.7977445E+03  0.7546771E-02  0.1173431E+00
          2   -1    0    0  502    0  0.00000000000E+00  0.00000000000E+00  0.27955380432E+04  0.27955380432E+04  0.00000000000E+00 0. -1.
          2   -1    0    0  503    0 -0.00000000000E+00 -0.00000000000E+00 -0.25138029904E+04  0.25138029904E+04  0.00000000000E+00 0. -1.
         24    2    1    2    0    0 -0.32448953012E+03 -0.89773025266E+02 -0.47928562342E+02  0.34960143255E+03  0.81063945932E+02 0.  0.
         25    2    1    2    0    0 -0.45471694506E+03  0.50114612725E+02  0.86577290742E+03  0.98715416649E+03  0.12502658384E+03 0.  0.
         24    2    1    2    0    0 -0.48389286615E+01 -0.46122599159E+02  0.49614365652E+02  0.10590980533E+03  0.81268642184E+02 0.  0.
        -11    1    3    3    0    0 -0.12649715114E+03 -0.38195379639E+01 -0.43133153320E+02  0.13370335461E+03  0.00000000000E+00 0.  1.
         12    1    3    3    0    0 -0.19799237898E+03 -0.85953487302E+02 -0.47954090222E+01  0.21589807795E+03  0.00000000000E+00 0. -1.
        -11    1    5    5    0    0 -0.36206761432E+02 -0.13136907404E+02 -0.83432453556E-01  0.38516423387E+02  0.00000000000E+00 0.  1.
         12    1    5    5    0    0  0.31367832771E+02 -0.32985691755E+02  0.49697798105E+02  0.67393381943E+02  0.00000000000E+00 0. -1.
          5    1    4    4  501    0 -0.14006249321E+03  0.36955134191E+02  0.16988829577E+03  0.22330989003E+03  0.47000000000E+01 0.  1.
         -5    1    4    4    0  501 -0.31465445184E+03  0.13159478535E+02  0.69588461165E+03  0.76384427646E+03  0.47000000000E+01 0.  1.
          1    1    1    2  502    0 -0.37844338969E+02 -0.42758401281E+01  0.15634670329E+04  0.15639308296E+04  0.00000000000E+00 0. -1.
          1    1    1    2  503    0  0.82188974281E+03  0.90056851827E+02 -0.21491906909E+04  0.23027447996E+04  0.00000000000E+00 0. -1.
<mgrwt>
<rscale>  0 0.17430491E+03</rscale>
<asrwt>0</asrwt>
<pdfrwt beam="1">  1        2 0.41110854E+00 0.38085126E+02</pdfrwt>
<pdfrwt beam="2">  1        2 0.36967691E+00 0.79774452E+03</pdfrwt>
<totfact> 0.27037501E+00</totfact>
</mgrwt>
</event>
<event>
13    1  0.1595792E-008  0.1386657E+03  0.7546771E-02  0.1243524E+00
          2   -1    0    0  503    0  0.00000000000E+00  0.00000000000E+00  0.22537937202E+04  0.22537937202E+04  0.00000000000E+00 0. -1.
          2   -1    0    0  502    0 -0.00000000000E+00 -0.00000000000E+00 -0.68523474833E+03  0.68523474833E+03  0.00000000000E+00 0. -1.
         24    2    1    2    0    0  0.48749550677E+02 -0.57087093145E+01 -0.43555914088E+02  0.10594128264E+03  0.83170485527E+02 0.  0.
         25    2    1    2    0    0 -0.46395941549E+02  0.25971881986E+03  0.34326053790E+03  0.45062217800E+03  0.12500440652E+03 0.  0.
         24    2    1    2    0    0  0.11102926529E+02  0.46978302371E+02  0.13777621300E+03  0.16665614741E+03  0.80385015571E+02 0.  0.
        -11    1    5    5    0    0  0.24219638105E+02  0.65237017461E+02  0.11651197804E+03  0.13571109146E+03  0.00000000000E+00 0.  1.
         12    1    5    5    0    0 -0.13116711577E+02 -0.18258715091E+02  0.21264234960E+02  0.30945055950E+02  0.00000000000E+00 0. -1.
        -13    1    3    3    0    0  0.18326435340E+01  0.22690387451E+02  0.13771438197E+02  0.26605728237E+02  0.00000000000E+00 0.  1.
         14    1    3    3    0    0  0.46916907143E+02 -0.28399096766E+02 -0.57327352285E+02  0.79335554406E+02  0.00000000000E+00 0. -1.
          5    1    4    4  501    0 -0.35797013236E+02  0.26532419698E+03  0.28541073054E+03  0.39135627089E+03  0.47000000000E+01 0.  1.
         -5    1    4    4    0  501 -0.10598928313E+02 -0.56053771248E+01  0.57849807359E+02  0.59265907110E+02  0.47000000000E+01 0.  1.
          1    1    1    2  502    0 -0.84639767556E+02 -0.18387317685E+03 -0.52054140053E+03  0.55851283340E+03  0.00000000000E+00 0. -1.
          1    1    1    2  503    0  0.71183231900E+02 -0.11711523606E+03  0.16516195356E+04  0.16572960271E+04  0.00000000000E+00 0. -1.
<mgrwt>
<rscale>  0 0.11974153E+03</rscale>
<asrwt>0</asrwt>
<pdfrwt beam="1">  1        2 0.33144025E+00 0.10339999E+03</pdfrwt>
<pdfrwt beam="2">  1        2 0.10076982E+00 0.13866572E+03</pdfrwt>
<totfact> 0.49597576E+01</totfact>
</mgrwt>
</event>
<event>
13    1  0.1595792E-008  0.4278519E+02  0.7546771E-02  0.1586116E+00
          2   -1    0    0  503    0  0.00000000000E+00  0.00000000000E+00  0.24580109580E+04  0.24580109580E+04  0.00000000000E+00 0. -1.
          2   -1    0    0  502    0 -0.00000000000E+00 -0.00000000000E+00 -0.46866055764E+04  0.46866055764E+04  0.00000000000E+00 0. -1.
         24    2    1    2    0    0  0.13903213012E+03 -0.39156167051E+03 -0.20461832086E+04  0.20894045437E+04  0.78071436470E+02 0.  0.
         25    2    1    2    0    0  0.34096336695E+03  0.71623561997E+02 -0.37088194762E+03  0.52398560160E+03  0.12498615674E+03 0.  0.
         24    2    1    2    0    0 -0.46055203892E+03  0.32589443086E+03  0.20525479950E+04  0.21304038942E+04  0.85744504352E+02 0.  0.
        -11    1    5    5    0    0 -0.17098793654E+03  0.12813622698E+03  0.62884409580E+03  0.66415409653E+03  0.00000000000E+00 0.  1.
         12    1    5    5    0    0 -0.28956410238E+03  0.19775820388E+03  0.14237038992E+04  0.14662497977E+04  0.00000000000E+00 0. -1.
        -13    1    3    3    0    0  0.11016055748E+03 -0.31880658673E+03 -0.14874332052E+04  0.15251985209E+04  0.00000000000E+00 0.  1.
         14    1    3    3    0    0  0.28871572644E+02 -0.72755083782E+02 -0.55875000335E+03  0.56420602280E+03  0.00000000000E+00 0. -1.
          5    1    4    4  501    0  0.85337610979E+02 -0.26484419605E+02 -0.51358072365E+02  0.10316818272E+03  0.47000000000E+01 0.  1.
         -5    1    4    4    0  501  0.25562575597E+03  0.98107981602E+02 -0.31952387526E+03  0.42081741887E+03  0.47000000000E+01 0.  1.
          1    1    1    2  502    0  0.20178308980E+02  0.10229381142E+02 -0.21306830901E+04  0.21308031901E+04  0.00000000000E+00 0. -1.
          1    1    1    2  503    0 -0.39621767133E+02 -0.16185703493E+02  0.26660563295E+03  0.27001930477E+03  0.00000000000E+00 0. -1.
<mgrwt>
<rscale>  0 0.31111629E+02</rscale>
<asrwt>0</asrwt>
<pdfrwt beam="1">  1        2 0.36147220E+00 0.42785192E+02</pdfrwt>
<pdfrwt beam="2">  1        2 0.68920669E+00 0.22623094E+02</pdfrwt>
<totfact> 0.32539431E-01</totfact>
</mgrwt>
</event>
<event>
13    1  0.1595792E-008  0.9689390E+02  0.7546771E-02  0.1311097E+00
          2   -1    0    0  502    0  0.00000000000E+00  0.00000000000E+00  0.21046388852E+04  0.21046388852E+04  0.00000000000E+00 0. -1.
          2   -1    0    0  503    0 -0.00000000000E+00 -0.00000000000E+00 -0.19878546599E+04  0.19878546599E+04  0.00000000000E+00 0. -1.
         24    2    1    2    0    0  0.82340523264E+02 -0.56506991671E+02 -0.76627282476E+03  0.77693479415E+03  0.80502363465E+02 0.  0.
         25    2    1    2    0    0 -0.78530380456E+02  0.11076689961E+03 -0.11502912187E+03  0.21746512480E+03  0.12499221945E+03 0.  0.
         24    2    1    2    0    0 -0.60211755631E+02 -0.45908427763E+02  0.19618620615E+03  0.22479618294E+03  0.79443420896E+02 0.  0.
        -11    1    5    5    0    0 -0.78692463675E+02 -0.42113269865E+02  0.17486896361E+03  0.19632927894E+03  0.00000000000E+00 0.  1.
         12    1    5    5    0    0  0.18480708044E+02 -0.37951578980E+01  0.21317242544E+02  0.28466903993E+02  0.00000000000E+00 0. -1.
        -11    1    3    3    0    0  0.14476276948E+02  0.17820133252E+02 -0.76924289206E+02  0.80277431531E+02  0.00000000000E+00 0.  1.
         12    1    3    3    0    0  0.67864246317E+02 -0.74327124923E+02 -0.68934853555E+03  0.69665736262E+03  0.00000000000E+00 0. -1.
          5    1    4    4  501    0  0.56529647854E+01 -0.14138047827E+02  0.12336770342E+02  0.20152575758E+02  0.47000000000E+01 0.  1.
         -5    1    4    4    0  501 -0.84183345241E+02  0.12490494744E+03 -0.12736589221E+03  0.19731254904E+03  0.47000000000E+01 0.  1.
          1    1    1    2  502    0  0.13145279257E+03  0.11145593326E+02  0.18337743369E+04  0.18385136332E+04  0.00000000000E+00 0. -1.
          1    1    1    2  503    0 -0.75051179745E+02 -0.19497073505E+02 -0.10318743711E+04  0.10347838099E+04  0.00000000000E+00 0. -1.
<mgrwt>
<rscale>  0 0.86679758E+02</rscale>
<asrwt>0</asrwt>
<pdfrwt beam="1">  1        2 0.30950572E+00 0.96893902E+02</pdfrwt>
<pdfrwt beam="2">  1        2 0.29233157E+00 0.77542346E+02</pdfrwt>
<totfact> 0.12158755E+01</totfact>
</mgrwt>
</event>
<event>
13    1  0.1595792E-008  0.8098520E+02  0.7546771E-02  0.1424187E+00
         -3   -1    0    0    0  501 -0.00000000000E+00  0.00000000000E+00  0.28156736295E+03  0.28156736295E+03  0.00000000000E+00 0.  1.
          2   -1    0    0  503    0  0.00000000000E+00 -0.00000000000E+00 -0.12813590820E+04  0.12813590820E+04  0.00000000000E+00 0. -1.
         24    2    1    2    0    0 -0.64885787869E+01  0.82952959619E+02 -0.34741355750E+02  0.12481995469E+03  0.86312016118E+02 0.  0.
         25    2    1    2    0    0 -0.11904302940E+03 -0.28353049088E+02 -0.11600671543E+03  0.20989670058E+03  0.12499571451E+03 0.  0.
         24    2    1    2    0    0  0.59177412781E+02 -0.76267719798E+02 -0.17360303461E+03  0.21482838947E+03  0.81819875516E+02 0.  0.
        -11    1    5    5    0    0  0.48584348969E+02 -0.37548073815E+01 -0.98508781353E+02  0.10990230911E+03  0.00000000000E+00 0.  1.
         12    1    5    5    0    0  0.10593063812E+02 -0.72512912417E+02 -0.75094253257E+02  0.10492608036E+03  0.00000000000E+00 0. -1.
        -11    1    3    3    0    0 -0.29267360135E+02 -0.39925444870E+01 -0.38945296128E+01  0.29794062188E+02  0.00000000000E+00 0.  1.
         12    1    3    3    0    0  0.22778781348E+02  0.86945504106E+02 -0.30846826137E+02  0.95025892507E+02  0.00000000000E+00 0. -1.
          5    1    4    4  502    0 -0.23155945155E+02  0.89687061070E+01  0.24819477307E+02  0.35422195571E+02  0.47000000000E+01 0.  1.
         -5    1    4    4    0  502 -0.95887084248E+02 -0.37321755195E+02 -0.14082619274E+03  0.17447450501E+03  0.47000000000E+01 0.  1.
          1    1    1    2  503    0  0.80462660092E+02 -0.11669578113E+02 -0.84048772098E+03  0.84441105384E+03  0.00000000000E+00 0. -1.
         -4    1    1    2    0  501 -0.14108464682E+02  0.33337387381E+02  0.16504710774E+03  0.16897034635E+03  0.00000000000E+00 0.  1.
<mgrwt>
<rscale>  0 0.54144742E+02</rscale>
<asrwt>0</asrwt>
<pdfrwt beam="2">  1        2 0.18843516E+00 0.80985195E+02</pdfrwt>
<pdfrwt beam="1">  1       -3 0.41406964E-01 0.36199864E+02</pdfrwt>
<totfact> 0.67060272E+01</totfact>
</mgrwt>
</event>
<event>
13    1  0.1595792E-008  0.3821872E+02  0.7546771E-02  0.1586113E+00
          2   -1    0    0  503    0  0.00000000000E+00  0.00000000000E+00  0.33884798868E+04  0.33884798868E+04  0.00000000000E+00 0. -1.
          2   -1    0    0  502    0 -0.00000000000E+00 -0.00000000000E+00 -0.28548249737E+03  0.28548249737E+03  0.00000000000E+00 0. -1.
         24    2    1    2    0    0 -0.10110181806E+02 -0.59447835632E+02 -0.82767785589E+02  0.13972307825E+03  0.95056674295E+02 0.  0.
         25    2    1    2    0    0 -0.25924635630E+02  0.11776761314E+03  0.20130368918E+03  0.26587334547E+03  0.12499665242E+03 0.  0.
         24    2    1    2    0    0  0.40315732550E+02 -0.45919913798E+02  0.77317605036E+02  0.12616291781E+03  0.78772285790E+02 0.  0.
        -11    1    5    5    0    0  0.42377783926E+02 -0.63984114414E+02  0.75880846102E+02  0.10792472503E+03  0.00000000000E+00 0.  1.
         12    1    5    5    0    0 -0.20620513763E+01  0.18064200616E+02  0.14367589336E+01  0.18238192783E+02  0.00000000000E+00 0. -1.
        -13    1    3    3    0    0  0.10574691913E+02  0.23144213265E+02 -0.87594397099E+01  0.26911085091E+02  0.00000000000E+00 0.  1.
         14    1    3    3    0    0 -0.20684873720E+02 -0.82592048897E+02 -0.74008345879E+02  0.11281199316E+03  0.00000000000E+00 0. -1.
          5    1    4    4  501    0  0.39179889392E+01  0.13580648270E+03  0.13969292783E+03  0.19492294751E+03  0.47000000000E+01 0. -1.
         -5    1    4    4    0  501 -0.29842624569E+02 -0.18038869562E+02  0.61610761352E+02  0.70950397960E+02  0.47000000000E+01 0. -1.
          1    1    1    2  502    0 -0.13632021290E+02 -0.35937020000E+02 -0.11433268535E+03  0.12062033142E+03  0.00000000000E+00 0. -1.
          1    1    1    2  503    0  0.93511061764E+01  0.23537156289E+02  0.30214765662E+04  0.30215827112E+04  0.00000000000E+00 0. -1.
<mgrwt>
<rscale>  0 0.31111950E+02</rscale>
<asrwt>0</asrwt>
<pdfrwt beam="1">  1        2 0.49830584E+00 0.25326684E+02</pdfrwt>
<pdfrwt beam="2">  1        2 0.41982722E-01 0.38218721E+02</pdfrwt>
<totfact> 0.42266864E+01</totfact>
</mgrwt>
</event>
<event>
13    1  0.1595792E-008  0.1535596E+03  0.7546771E-02  0.1234753E+00
          2   -1    0    0  502    0  0.00000000000E+00  0.00000000000E+00  0.18371704781E+04  0.18371704781E+04  0.00000000000E+00 0. -1.
          2   -1    0    0  503    0 -0.00000000000E+00 -0.00000000000E+00 -0.12440020778E+04  0.12440020778E+04  0.00000000000E+00 0. -1.
         24    2    1    2    0    0 -0.10550753503E+03 -0.28033922506E+02 -0.36163825890E+01  0.13107030583E+03  0.72447264187E+02 0.  0.
         25    2    1    2    0    0  0.80912530437E+02 -0.62545268479E+02  0.11049782485E+03  0.19569149706E+03  0.12500657797E+03 0.  0.
         24    2    1    2    0    0  0.51212989897E+02 -0.46390782952E+02  0.38095418421E+03  0.39542396143E+03  0.80368798235E+02 0.  0.
        -13    1    3    3    0    0 -0.81138628859E+02  0.13258058105E+02 -0.95100874571E+01  0.82762883960E+02  0.00000000000E+00 0.  1.
         14    1    3    3    0    0 -0.24368906173E+02 -0.41291980612E+02  0.58937048681E+01  0.48307421873E+02  0.00000000000E+00 0. -1.
        -13    1    5    5    0    0 -0.43352225286E+01 -0.48676174601E+02  0.14519508300E+03  0.15319848647E+03  0.00000000000E+00 0.  1.
         14    1    5    5    0    0  0.55548212426E+02  0.22853916497E+01  0.23575910121E+03  0.24222547496E+03  0.00000000000E+00 0. -1.
          5    1    4    4  501    0  0.44771638533E+02 -0.92826470596E+02  0.10628490947E+03  0.14812098177E+03  0.47000000000E+01 0. -1.
         -5    1    4    4    0  501  0.36140891904E+02  0.30281202118E+02  0.42129153860E+01  0.47570515294E+02  0.47000000000E+01 0. -1.
          1    1    1    2  502    0 -0.14089998255E+03  0.26997065983E+02  0.12223631215E+04  0.12307531221E+04  0.00000000000E+00 0. -1.
          1    1    1    2  503    0  0.11428199725E+03  0.10997290795E+03 -0.11170303477E+04  0.11282336695E+04  0.00000000000E+00 0. -1.
<mgrwt>
<rscale>  0 0.12520246E+03</rscale>
<asrwt>0</asrwt>
<pdfrwt beam="1">  1        2 0.27017213E+00 0.10208192E+03</pdfrwt>
<pdfrwt beam="2">  1        2 0.18294148E+00 0.15355957E+03</pdfrwt>
<totfact> 0.35889108E+01</totfact>
</mgrwt>
</event>
<event>
13    1  0.1595792E-008  0.6965773E+02  0.7546771E-02  0.1412123E+00
          2   -1    0    0  503    0  0.00000000000E+00  0.00000000000E+00  0.13120863743E+04  0.13120863743E+04  0.00000000000E+00 0. -1.
          2   -1    0    0  502    0 -0.00000000000E+00 -0.00000000000E+00 -0.31039055893E+04  0.31039055893E+04  0.00000000000E+00 0. -1.
         24    2    1    2    0    0 -0.23994505620E+03 -0.95054786398E+02 -0.64231897282E+03  0.69657534676E+03  0.77682098741E+02 0.  0.
         25    2    1    2    0    0  0.55649954228E+03 -0.11006729352E+03 -0.35514211588E+03  0.68085026730E+03  0.12499845740E+03 0.  0.
         24    2    1    2    0    0 -0.39244185859E+03  0.20863675951E+03  0.13277810954E+03  0.47080735152E+03  0.80558215499E+02 0.  0.
        -11    1    5    5    0    0 -0.25088954334E+03  0.13845575657E+03  0.45011795627E+02  0.29007175187E+03  0.00000000000E+00 0.  1.
         12    1    5    5    0    0 -0.14155231525E+03  0.70181002940E+02  0.87766313913E+02  0.18073559966E+03  0.00000000000E+00 0. -1.
        -13    1    3    3    0    0 -0.10838420473E+03 -0.14352098557E+02 -0.19751351069E+03  0.22575363889E+03  0.00000000000E+00 0.  1.
         14    1    3    3    0    0 -0.13156085147E+03 -0.80702687841E+02 -0.44480546213E+03  0.47082170787E+03  0.00000000000E+00 0. -1.
          5    1    4    4  501    0  0.26792168818E+03 -0.85134715077E+02 -0.11201124726E+03  0.30265254042E+03  0.47000000000E+01 0. -1.
         -5    1    4    4    0  501  0.28857785410E+03 -0.24932578448E+02 -0.24313086862E+03  0.37819772688E+03  0.47000000000E+01 0. -1.
          1    1    1    2  502    0  0.53904874781E+02 -0.44138141904E+02 -0.17461021692E+04  0.17474915440E+04  0.00000000000E+00 0. -1.
          1    1    1    2  503    0  0.21982497728E+02  0.40623462314E+02  0.81896593340E+03  0.82026745392E+03  0.00000000000E+00 0. -1.
<mgrwt>
<rscale>  0 0.56722795E+02</rscale>
<asrwt>0</asrwt>
<pdfrwt beam="1">  1        2 0.19295388E+00 0.46189781E+02</pdfrwt>
<pdfrwt beam="2">  1        2 0.45645669E+00 0.69657733E+02</pdfrwt>
<totfact> 0.88296244E+00</totfact>
</mgrwt>
</event>
<event>
13    1  0.1595792E-008  0.6611840E+02  0.7546771E-02  0.1417566E+00
          2   -1    0    0  502    0  0.00000000000E+00  0.00000000000E+00  0.18559691815E+04  0.18559691815E+04  0.00000000000E+00 0. -1.
          2   -1    0    0  503    0 -0.00000000000E+00 -0.00000000000E+00 -0.17649250591E+03  0.17649250591E+03  0.00000000000E+00 0. -1.
         24    2    1    2    0    0  0.13708056201E+01 -0.61118776320E+02  0.36453148539E+02  0.12049443271E+03  0.97224957434E+02 0.  0.
         25    2    1    2    0    0 -0.41537008538E+02  0.33086453668E+02  0.16765382810E+03  0.21576816373E+03  0.12501223104E+03 0.  0.
         24    2    1    2    0    0 -0.25263596589E+02 -0.90066337800E+01  0.59946179517E+03  0.60500921647E+03  0.77216185990E+02 0.  0.
        -11    1    5    5    0    0  0.16742835328E+02  0.23240550870E+02  0.19374618757E+03  0.19585206391E+03  0.00000000000E+00 0.  1.
         12    1    5    5    0    0 -0.42006431917E+02 -0.32247184650E+02  0.40571560760E+03  0.40915715256E+03  0.00000000000E+00 0. -1.
        -11    1    3    3    0    0  0.84085529567E+01 -0.27964963775E+01 -0.30302289905E+02  0.31571394145E+02  0.00000000000E+00 0.  1.
         12    1    3    3    0    0 -0.70377473366E+01 -0.58322279942E+02  0.66755438444E+02  0.88923038562E+02  0.00000000000E+00 0. -1.
          5    1    4    4  501    0  0.15233009751E+02  0.35089351631E+02  0.15178400624E+03  0.15660070796E+03  0.47000000000E+01 0.  1.
         -5    1    4    4    0  501 -0.56770018289E+02 -0.20028979625E+01  0.15869821865E+02  0.59167455774E+02  0.47000000000E+01 0.  1.
          1    1    1    2  502    0  0.39967735714E+02 -0.24063634937E+02  0.97275973715E+03  0.97387780786E+03  0.00000000000E+00 0. -1.
          1    1    1    2  503    0  0.25462063792E+02  0.61102591368E+02 -0.96851833337E+02  0.11731206666E+03  0.00000000000E+00 0. -1.
<mgrwt>
<rscale>  0 0.55539216E+02</rscale>
<asrwt>0</asrwt>
<pdfrwt beam="1">  1        2 0.27293663E+00 0.46652743E+02</pdfrwt>
<pdfrwt beam="2">  1        2 0.25954781E-01 0.66118395E+02</pdfrwt>
<totfact> 0.35678816E+02</totfact>
</mgrwt>
</event>
<event>
13    1  0.1595792E-008  0.1938441E+03  0.7546771E-02  0.1472515E+00
          4   -1    0    0  503    0 -0.00000000000E+00  0.00000000000E+00  0.11503679371E+04  0.11503679371E+04  0.00000000000E+00 0. -1.
          2   -1    0    0  502    0  0.00000000000E+00 -0.00000000000E+00 -0.88239562094E+03  0.88239562094E+03  0.00000000000E+00 0. -1.
         24    2    1    2    0    0  0.11237688294E+02  0.29519877927E+02  0.19723955437E+03  0.21654757850E+03  0.83616404585E+02 0.  0.
         25    2    1    2    0    0 -0.50489738153E+02  0.64765574536E+02  0.27627028141E+03  0.31413494981E+03  0.12494680868E+03 0.  0.
         24    2    1    2    0    0  0.17179571647E+03  0.53471096630E+02 -0.49368144100E+03  0.53110057768E+03  0.77288628183E+02 0.  0.
        -11    1    5    5    0    0  0.84383897208E+02  0.63005815771E+02 -0.22565489450E+03  0.24901908831E+03  0.00000000000E+00 0.  1.
         12    1    5    5    0    0  0.87411819266E+02 -0.95347191414E+01 -0.26802654650E+03  0.28208148937E+03  0.00000000000E+00 0. -1.
        -13    1    3    3    0    0 -0.16858090219E+02 -0.77236047588E+01  0.14631020676E+03  0.14748059492E+03  0.00000000000E+00 0.  1.
         14    1    3    3    0    0  0.28095778513E+02  0.37243482686E+02  0.50929347611E+02  0.69066983580E+02  0.00000000000E+00 0. -1.
          5    1    4    4  501    0 -0.15798266348E+02  0.67138209422E+02  0.50394794635E+02  0.85550275921E+02  0.47000000000E+01 0.  1.
         -5    1    4    4    0  501 -0.34691471805E+02 -0.23726348860E+01  0.22587548677E+03  0.22858467389E+03  0.47000000000E+01 0.  1.
          1    1    1    2  502    0 -0.12944211573E+03 -0.13763772584E+03 -0.31522778453E+03  0.36751593304E+03  0.00000000000E+00 0. -1.
          3    1    1    2  503    0 -0.31015508877E+01 -0.10118823250E+02  0.60337170594E+03  0.60346451904E+03  0.00000000000E+00 0. -1.
<mgrwt>
<rscale>  0 0.45293999E+02</rscale>
<asrwt>0</asrwt>
<pdfrwt beam="2">  1        2 0.12976406E+00 0.19384408E+03</pdfrwt>
<pdfrwt beam="1">  1        4 0.16917176E+00 0.10583487E+02</pdfrwt>
<totfact> 0.35771775E+00</totfact>
</mgrwt>
</event>
<event>
13    1  0.1595792E-008  0.1605436E+03  0.7546771E-02  0.1251531E+00
         -1   -1    0    0    0  501 -0.00000000000E+00  0.00000000000E+00  0.19874705961E+04  0.19874705961E+04  0.00000000000E+00 0.  1.
          4   -1    0    0  503    0  0.00000000000E+00 -0.00000000000E+00 -0.74507338985E+03  0.74507338985E+03  0.00000000000E+00 0. -1.
         24    2    1    2    0    0  0.50734280337E+02  0.33338485132E+02  0.51151007264E+03  0.52106802796E+03  0.78637863371E+02 0.  0.
         25    2    1    2    0    0 -0.12695897832E+03 -0.10356122505E+03  0.16013989076E+03  0.26098720815E+03  0.12500411472E+03 0.  0.
         24    2    1    2    0    0 -0.10188339090E+03 -0.78447046085E+02 -0.34940256249E+02  0.15602213937E+03  0.81166015583E+02 0.  0.
        -11    1    3    3    0    0  0.42436689794E+02 -0.51471463144E+01  0.40948604155E+03  0.41171128717E+03  0.00000000000E+00 0.  1.
         12    1    3    3    0    0  0.82975905437E+01  0.38485631447E+02  0.10202403109E+03  0.10935674079E+03  0.00000000000E+00 0. -1.
        -11    1    5    5    0    0 -0.26017516526E+02  0.16185413785E+02 -0.96510909699E+01  0.32125104553E+02  0.00000000000E+00 0.  1.
         12    1    5    5    0    0 -0.75865874373E+02 -0.94632459871E+02 -0.25289165279E+02  0.12389703482E+03  0.00000000000E+00 0. -1.
          5    1    4    4  502    0 -0.12378255782E+03 -0.97474576502E+02  0.73447798149E+02  0.17389676172E+03  0.47000000000E+01 0. -1.
         -5    1    4    4    0  502 -0.31764204963E+01 -0.60866485447E+01  0.86692092616E+02  0.87090446432E+02  0.47000000000E+01 0. -1.
          3    1    1    2  503    0  0.98679295479E+02  0.12667649523E+03 -0.58209049520E+03  0.60383266093E+03  0.00000000000E+00 0. -1.
         -2    1    1    2    0  501  0.79428793398E+02  0.21993290765E+02  0.11877779943E+04  0.11906339495E+04  0.00000000000E+00 0.  1.
<mgrwt>
<rscale>  0 0.11502868E+03</rscale>
<asrwt>0</asrwt>
<pdfrwt beam="2">  1        4 0.10956962E+00 0.16054360E+03</pdfrwt>
<pdfrwt beam="1">  1       -1 0.29227509E+00 0.82417462E+02</pdfrwt>
<totfact> 0.13309364E-01</totfact>
</mgrwt>
</event>
<event>
13    1  0.1595792E-008  0.9927442E+02  0.7546771E-02  0.1455296E+00
          2   -1    0    0  502    0  0.00000000000E+00  0.00000000000E+00  0.35007695907E+03  0.35007695907E+03  0.00000000000E+00 0. -1.
          2   -1    0    0  503    0 -0.00000000000E+00 -0.00000000000E+00 -0.13791566875E+04  0.13791566875E+04  0.00000000000E+00 0. -1.
         24    2    1    2    0    0  0.67528377521E+02  0.23267947202E+02 -0.23044052446E+03  0.25362105689E+03  0.78226121249E+02 0.  0.
         25    2    1    2    0    0  0.25637897786E+02 -0.76161818223E+02  0.84005404490E+02  0.17070423000E+03  0.12500040720E+03 0.  0.
         24    2    1    2    0    0 -0.11475861105E+02  0.38090975197E+02  0.56960418659E+02  0.10229716670E+03  0.75083974592E+02 0.  0.
        -11    1    5    5    0    0 -0.40717764957E+02  0.38050110476E+02  0.37157956721E+02  0.66981049842E+02  0.00000000000E+00 0.  1.
         12    1    5    5    0    0  0.29241903852E+02  0.40864721485E-01  0.19802461938E+02  0.35316116854E+02  0.00000000000E+00 0. -1.
        -13    1    3    3    0    0  0.75963923016E+02  0.16197311753E+02 -0.22982701914E+03  0.24259705117E+03  0.00000000000E+00 0.  1.
         14    1    3    3    0    0 -0.84355454953E+01  0.70706354488E+01 -0.61350532538E+00  0.11024005726E+02  0.00000000000E+00 0. -1.
          5    1    4    4  501    0 -0.36236366760E+02 -0.29308694697E+02  0.80174846500E+02  0.92855639959E+02  0.47000000000E+01 0. -1.
         -5    1    4    4    0  501  0.61874264546E+02 -0.46853123526E+02  0.38305579900E+01  0.77848590044E+02  0.47000000000E+01 0. -1.
          1    1    1    2  502    0  0.10895902019E+02 -0.20711592350E+02  0.12814591211E+03  0.13026536581E+03  0.00000000000E+00 0. -1.
          1    1    1    2  503    0 -0.92586316221E+02  0.35514488174E+02 -0.10677509392E+04  0.10723458272E+04  0.00000000000E+00 0. -1.
<mgrwt>
<rscale>  0 0.48200610E+02</rscale>
<asrwt>0</asrwt>
<pdfrwt beam="1">  1        2 0.51481905E-01 0.23402793E+02</pdfrwt>
<pdfrwt beam="2">  1        2 0.20281716E+00 0.99274423E+02</pdfrwt>
<totfact> 0.27409012E+02</totfact>
</mgrwt>
</event>
<event>
13    1  0.1595792E-008  0.1275439E+03  0.7546771E-02  0.1330651E+00
         -3   -1    0    0    0  501 -0.00000000000E+00  0.00000000000E+00  0.65939211695E+03  0.65939211695E+03  0.00000000000E+00 0.  1.
          2   -1    0    0  503    0  0.00000000000E+00 -0.00000000000E+00 -0.13244032418E+04  0.13244032418E+04  0.00000000000E+00 0. -1.
         24    2    1    2    0    0  0.90075321342E+02  0.33509404078E+02  0.11165904288E+03  0.16854500783E+03  0.81873280939E+02 0.  0.
         25    2    1    2    0    0 -0.27215012001E+03 -0.49348812460E+02  0.32086688588E+03  0.44168298342E+03  0.12500922474E+03 0.  0.
         24    2    1    2    0    0  0.28749332754E+02 -0.70853511249E+01 -0.40234050089E+02  0.94370167621E+02  0.80063870853E+02 0.  0.
        -11    1    5    5    0    0  0.25934540356E+02  0.21151090529E+02  0.11481779449E+02  0.35380789609E+02  0.00000000000E+00 0.  1.
         12    1    5    5    0    0  0.28147923979E+01 -0.28236441654E+02 -0.51715829538E+02  0.58989378013E+02  0.00000000000E+00 0. -1.
        -13    1    3    3    0    0  0.84291929857E+02  0.55220374607E+02  0.75266335072E+02  0.12577535691E+03  0.00000000000E+00 0.  1.
         14    1    3    3    0    0  0.57833914848E+01 -0.21710970529E+02  0.36392707804E+02  0.42769650919E+02  0.00000000000E+00 0. -1.
          5    1    4    4  502    0 -0.12743828841E+03 -0.74373760204E+02  0.10751646733E+03  0.18263037619E+03  0.47000000000E+01 0. -1.
         -5    1    4    4    0  502 -0.14471183160E+03  0.25024947744E+02  0.21335041855E+03  0.25905260723E+03  0.47000000000E+01 0. -1.
          1    1    1    2  503    0  0.15550855672E+03 -0.26504604742E+02 -0.11571024066E+04  0.11678062273E+04  0.00000000000E+00 0. -1.
         -4    1    1    2    0  501 -0.21830908019E+01  0.49429364250E+02  0.99799403011E+02  0.11139097260E+03  0.00000000000E+00 0.  1.
<mgrwt>
<rscale>  0 0.79439025E+02</rscale>
<asrwt>0</asrwt>
<pdfrwt beam="2">  1        2 0.19476518E+00 0.12754388E+03</pdfrwt>
<pdfrwt beam="1">  1       -3 0.96969430E-01 0.49477550E+02</pdfrwt>
<totfact> 0.11266422E+01</totfact>
</mgrwt>
</event>
<event>
13    1  0.1595792E-008  0.1290399E+03  0.7546771E-02  0.1357670E+00
          2   -1    0    0  503    0  0.00000000000E+00  0.00000000000E+00  0.12923434122E+04  0.12923434122E+04  0.00000000000E+00 0. -1.
          2   -1    0    0  502    0 -0.00000000000E+00 -0.00000000000E+00 -0.25295927205E+04  0.25295927205E+04  0.00000000000E+00 0. -1.
         24    2    1    2    0    0 -0.49173501238E+02  0.68744913511E+01 -0.23875601706E+03  0.25663098968E+03  0.79935832553E+02 0.  0.
         25    2    1    2    0    0 -0.75126348627E+02 -0.13320781330E+03  0.14564892302E+02  0.19805514500E+03  0.12500165835E+03 0.  0.
         24    2    1    2    0    0 -0.41122692128E+02  0.17080145927E+02  0.13468613889E+02  0.92574656313E+02  0.80036593122E+02 0.  0.
        -11    1    3    3    0    0 -0.48151463838E+02 -0.27347831345E+02 -0.10676174749E+03  0.12026860803E+03  0.00000000000E+00 0.  1.
         12    1    3    3    0    0 -0.10220373994E+01  0.34222322696E+02 -0.13199426957E+03  0.13636238165E+03  0.00000000000E+00 0. -1.
        -13    1    5    5    0    0 -0.34072123196E+02 -0.23073292574E+02 -0.13943721030E+02  0.43447828087E+02  0.00000000000E+00 0.  1.
         14    1    5    5    0    0 -0.70505689321E+01  0.40153438502E+02  0.27412334919E+02  0.49126828225E+02  0.00000000000E+00 0. -1.
          5    1    4    4  501    0 -0.45259628192E+02 -0.37032048494E+02  0.63103942107E+02  0.86162660528E+02  0.47000000000E+01 0. -1.
         -5    1    4    4    0  501 -0.29866720435E+02 -0.96175764807E+02 -0.48539049805E+02  0.11189248447E+03  0.47000000000E+01 0. -1.
          1    1    1    2  502    0  0.14472576666E+03  0.14201919595E+03 -0.21454853739E+04  0.21550458207E+04  0.00000000000E+00 0. -1.
          1    1    1    2  503    0  0.20696775333E+02 -0.32766019933E+02  0.11189585764E+04  0.11196295210E+04  0.00000000000E+00 0. -1.
<mgrwt>
<rscale>  0 0.70717562E+02</rscale>
<asrwt>0</asrwt>
<pdfrwt beam="1">  1        2 0.19005050E+00 0.38755239E+02</pdfrwt>
<pdfrwt beam="2">  1        2 0.37199893E+00 0.12903994E+03</pdfrwt>
<totfact> 0.16561363E+01</totfact>
</mgrwt>
</event>
<event>
13    1  0.1595792E-008  0.1182644E+03  0.7546771E-02  0.1396681E+00
          2   -1    0    0  502    0  0.00000000000E+00  0.00000000000E+00  0.21144672851E+04  0.21144672851E+04  0.00000000000E+00 0. -1.
          2   -1    0    0  503    0 -0.00000000000E+00 -0.00000000000E+00 -0.19537584620E+04  0.19537584620E+04  0.00000000000E+00 0. -1.
         24    2    1    2    0    0 -0.43114259024E+02 -0.62025065431E+02 -0.10571406985E+04  0.10629341478E+04  0.81096227284E+02 0.  0.
         25    2    1    2    0    0 -0.45914975416E+02  0.47920166723E+02 -0.20855764006E+03  0.25204233866E+03  0.12499809560E+03 0.  0.
         24    2    1    2    0    0  0.65822179695E+02 -0.70484552342E+02  0.12909681367E+03  0.18023139947E+03  0.80726319113E+02 0.  0.
        -11    1    5    5    0    0  0.56225200755E+02 -0.52422133477E+02  0.13796675009E+03  0.15793725782E+03  0.00000000000E+00 0.  1.
         12    1    5    5    0    0  0.95969789404E+01 -0.18062418866E+02 -0.88699364158E+01  0.22294141654E+02  0.00000000000E+00 0. -1.
        -13    1    3    3    0    0  0.72589249664E+01  0.93670537099E+01 -0.32824257163E+02  0.34897930385E+02  0.00000000000E+00 0.  1.
         14    1    3    3    0    0 -0.50373183990E+02 -0.71392119141E+02 -0.10243164413E+04  0.10280362174E+04  0.00000000000E+00 0. -1.
          5    1    4    4  501    0  0.29945199224E+01  0.53329557956E+02 -0.20187466546E+02  0.57294264171E+02  0.47000000000E+01 0.  1.
         -5    1    4    4    0  501 -0.48909495338E+02 -0.54093912332E+01 -0.18837017351E+03  0.19474807449E+03  0.47000000000E+01 0.  1.
          1    1    1    2  502    0  0.28142165425E+02  0.11491057233E+03  0.19329846531E+04  0.19366016860E+04  0.00000000000E+00 0. -1.
          1    1    1    2  503    0 -0.49351106806E+01 -0.30321121284E+02 -0.63567430511E+03  0.63641617507E+03  0.00000000000E+00 0. -1.
<mgrwt>
<rscale>  0 0.60275183E+02</rscale>
<asrwt>0</asrwt>
<pdfrwt beam="1">  1        2 0.31095107E+00 0.11826444E+03</pdfrwt>
<pdfrwt beam="2">  1        2 0.28731742E+00 0.30720119E+02</pdfrwt>
<totfact> 0.13533961E+01</totfact>
</mgrwt>
</event>
<event>
13    1  0.1595792E-008  0.1381581E+03  0.7546771E-02  0.1236175E+00
         -1   -1    0    0    0  501 -0.00000000000E+00  0.00000000000E+00  0.27208934392E+04  0.27208934392E+04  0.00000000000E+00 0.  1.
          2   -1    0    0  503    0  0.00000000000E+00 -0.00000000000E+00 -0.32128738176E+04  0.32128738176E+04  0.00000000000E+00 0. -1.
         24    2    1    2    0    0 -0.33610222936E+01  0.46517634307E+02 -0.23962689162E+02  0.95998291005E+02  0.80413149619E+02 0.  0.
         25    2    1    2    0    0  0.49947839941E+02 -0.28703163987E+03  0.10923196679E+03  0.33531994613E+03  0.12500357878E+03 0.  0.
         24    2    1    2    0    0 -0.26301081678E+02  0.27444714959E+03 -0.90939783239E+03  0.95408525651E+03  0.85213111169E+02 0.  0.
        -11    1    3    3    0    0  0.29492955931E+02 -0.68454786263E+01 -0.86594113495E+01  0.31490957942E+02  0.00000000000E+00 0.  1.
         12    1    3    3    0    0 -0.32853978224E+02  0.53363112934E+02 -0.15303277813E+02  0.64507333063E+02  0.00000000000E+00 0. -1.
        -13    1    5    5    0    0  0.30090762679E+02  0.64695612983E+02 -0.21983030370E+03  0.23111974984E+03  0.00000000000E+00 0.  1.
         14    1    5    5    0    0 -0.56391844358E+02  0.20975153661E+03 -0.68956752869E+03  0.72296550667E+03  0.00000000000E+00 0. -1.
          5    1    4    4  502    0  0.14042254414E+02 -0.38516835040E+02  0.69826066524E+02  0.81107959269E+02  0.47000000000E+01 0.  1.
         -5    1    4    4    0  502  0.35905585527E+02 -0.24851480483E+03  0.39405900265E+02  0.25421198686E+03  0.47000000000E+01 0.  1.
          1    1    1    2  503    0 -0.25120538546E+01  0.10335675715E+03 -0.21048746304E+04  0.21074121902E+04  0.00000000000E+00 0. -1.
         -2    1    1    2    0  501 -0.17773682114E+02 -0.13728990118E+03  0.24370228067E+04  0.24409515729E+04  0.00000000000E+00 0.  1.
<mgrwt>
<rscale>  0 0.12429514E+03</rscale>
<asrwt>0</asrwt>
<pdfrwt beam="2">  1        2 0.47248144E+00 0.11182320E+03</pdfrwt>
<pdfrwt beam="1">  1       -1 0.40013139E+00 0.13815811E+03</pdfrwt>
<totfact> 0.24451625E-02</totfact>
</mgrwt>
</event>
<event>
13    1  0.1595792E-008  0.1915719E+03  0.7546771E-02  0.1394678E+00
          2   -1    0    0  503    0  0.00000000000E+00  0.00000000000E+00  0.19631904572E+04  0.19631904572E+04  0.00000000000E+00 0. -1.
          2   -1    0    0  502    0 -0.00000000000E+00 -0.00000000000E+00 -0.61368379949E+03  0.61368379949E+03  0.00000000000E+00 0. -1.
         24    2    1    2    0    0  0.16810386933E+02  0.51084230700E+02 -0.14908402713E+03  0.16992450426E+03  0.61287048127E+02 0.  0.
         25    2    1    2    0    0 -0.18123442372E+03  0.12472231583E+03  0.97327659263E+02  0.27110645067E+03  0.12499784771E+03 0.  0.
         24    2    1    2    0    0  0.12646006375E+03  0.41596557202E+02  0.35482095033E+03  0.38727323262E+03  0.79751041465E+02 0.  0.
        -11    1    5    5    0    0 -0.93913741641E+01  0.11507290649E+02  0.50733661326E+02  0.52863220090E+02  0.00000000000E+00 0.  1.
         12    1    5    5    0    0  0.13585143792E+03  0.30089266554E+02  0.30408728900E+03  0.33441001253E+03  0.00000000000E+00 0. -1.
        -13    1    3    3    0    0 -0.14664059944E+02  0.46505702421E+02 -0.77089542444E+02  0.91217391795E+02  0.00000000000E+00 0.  1.
         14    1    3    3    0    0  0.31474446878E+02  0.45785282785E+01 -0.71994484689E+02  0.78707112468E+02  0.00000000000E+00 0. -1.
          5    1    4    4  501    0 -0.40230306313E+02  0.48137026358E+02  0.90774919901E+02  0.11044377273E+03  0.47000000000E+01 0. -1.
         -5    1    4    4    0  501 -0.14100411741E+03  0.76585289470E+02  0.65527393622E+01  0.16066267794E+03  0.47000000000E+01 0. -1.
          1    1    1    2  502    0 -0.18220762198E+02 -0.62708167734E+01 -0.34225226052E+03  0.34279429567E+03  0.00000000000E+00 0. -1.
          1    1    1    2  503    0  0.56184735233E+02 -0.21113228696E+03  0.13886943358E+04  0.14057757735E+04  0.00000000000E+00 0. -1.
<mgrwt>
<rscale>  0 0.60757898E+02</rscale>
<asrwt>0</asrwt>
<pdfrwt beam="1">  1        2 0.28870448E+00 0.19157186E+03</pdfrwt>
<pdfrwt beam="2">  1        2 0.90247618E-01 0.19269648E+02</pdfrwt>
<totfact> 0.76149979E+01</totfact>
</mgrwt>
</event>
<event>
13    1  0.1595792E-008  0.5929906E+02  0.7546771E-02  0.1449560E+00
          2   -1    0    0  503    0  0.00000000000E+00  0.00000000000E+00  0.47721223371E+03  0.47721223371E+03  0.00000000000E+00 0. -1.
         -1   -1    0    0    0  501 -0.00000000000E+00 -0.00000000000E+00 -0.15387632126E+04  0.15387632126E+04  0.00000000000E+00 0.  1.
         24    2    1    2    0    0  0.51659031416E+02 -0.28332570543E+02 -0.65467270130E+03  0.66234476229E+03  0.81442299983E+02 0.  0.
         25    2    1    2    0    0 -0.14553318333E+03 -0.60755886020E+02 -0.39057782765E+03  0.43937138819E+03  0.12499996871E+03 0.  0.
         24    2    1    2    0    0  0.19685893633E+02  0.10051270116E+03  0.80073406994E+02  0.15305109501E+03  0.80762303540E+02 0.  0.
        -11    1    3    3    0    0  0.42166980203E+02  0.23140337585E+02 -0.32672285931E+03  0.33024438866E+03  0.00000000000E+00 0.  1.
         12    1    3    3    0    0  0.94920512137E+01 -0.51472908128E+02 -0.32794984199E+03  0.33210037363E+03  0.00000000000E+00 0. -1.
        -13    1    5    5    0    0  0.83646086046E+01 -0.10930089858E+02  0.24278065664E+02  0.27908027766E+02  0.00000000000E+00 0.  1.
         14    1    5    5    0    0  0.11321285029E+02  0.11144279102E+03  0.55795341330E+02  0.12514306724E+03  0.00000000000E+00 0. -1.
          5    1    4    4  502    0 -0.14222177627E+03 -0.45891525892E+01 -0.30827601007E+03  0.33956484263E+03  0.47000000000E+01 0.  1.
         -5    1    4    4    0  502 -0.33114070644E+01 -0.56166733431E+02 -0.82301817579E+02  0.99806545566E+02  0.47000000000E+01 0.  1.
          1    1    1    2  503    0  0.44351898507E+02 -0.39347269437E+02  0.32878594768E+03  0.33408905685E+03  0.00000000000E+00 0. -1.
         -2    1    1    2    0  501  0.29836359775E+02  0.27923024836E+02 -0.42515980465E+03  0.42711914400E+03  0.00000000000E+00 0.  1.
<mgrwt>
<rscale>  0 0.49226251E+02</rscale>
<asrwt>0</asrwt>
<pdfrwt beam="1">  1        2 0.70178268E-01 0.59299060E+02</pdfrwt>
<pdfrwt beam="2">  1       -1 0.22628871E+00 0.40864455E+02</pdfrwt>
<totfact> 0.10913199E+01</totfact>
</mgrwt>
</event>
<event>
13    1  0.1595792E-008  0.6328016E+02  0.7546771E-02  0.1633943E+00
          2   -1    0    0  503    0  0.00000000000E+00  0.00000000000E+00  0.19620535542E+04  0.19620535542E+04  0.00000000000E+00 0. -1.
          2   -1    0    0  502    0 -0.00000000000E+00 -0.00000000000E+00 -0.10083965936E+04  0.10083965936E+04  0.00000000000E+00 0. -1.
         24    2    1    2    0    0 -0.41396964000E+03  0.64789980750E+03  0.39033729554E+03  0.86461655329E+03  0.63667546969E+02 0.  0.
         25    2    1    2    0    0  0.48822202830E+03 -0.58558582043E+03  0.52040118033E+03  0.93151134240E+03  0.12499796202E+03 0.  0.
         24    2    1    2    0    0 -0.46528449698E+02 -0.13148621046E+03  0.38024217328E+03  0.41293649253E+03  0.80491716022E+02 0.  0.
        -11    1    3    3    0    0 -0.22507760896E+03  0.40958610172E+03  0.24084305126E+03  0.52576237990E+03  0.00000000000E+00 0.  1.
         12    1    3    3    0    0 -0.18889203104E+03  0.23831370578E+03  0.14949424428E+03  0.33885417340E+03  0.00000000000E+00 0. -1.
        -11    1    5    5    0    0 -0.24515760937E+02 -0.14673103958E+02  0.16126250345E+03  0.16377398308E+03  0.00000000000E+00 0.  1.
         12    1    5    5    0    0 -0.22012688761E+02 -0.11681310650E+03  0.21897966983E+03  0.24916250945E+03  0.00000000000E+00 0. -1.
          5    1    4    4  501    0  0.17299351215E+03 -0.27556710841E+03  0.27359731617E+03  0.42513711658E+03  0.47000000000E+01 0.  1.
         -5    1    4    4    0  501  0.31522851615E+03 -0.31001871202E+03  0.24680386417E+03  0.50637422581E+03  0.47000000000E+01 0.  1.
          1    1    1    2  502    0 -0.25603992892E+02  0.57856196351E+02 -0.54737492543E+03  0.55101924912E+03  0.00000000000E+00 0. -1.
          1    1    1    2  503    0 -0.21199457146E+01  0.11316027035E+02  0.21005123685E+03  0.21036651050E+03  0.00000000000E+00 0. -1.
<mgrwt>
<rscale>  0 0.26991435E+02</rscale>
<asrwt>0</asrwt>
<pdfrwt beam="1">  1        2 0.28853729E+00 0.11512890E+02</pdfrwt>
<pdfrwt beam="2">  1        2 0.14829362E+00 0.63280162E+02</pdfrwt>
<totfact> 0.56929951E+01</totfact>
</mgrwt>
</event>
<event>
13    1  0.1595792E-008  0.6925744E+02  0.7546771E-02  0.1446208E+00
          2   -1    0    0  503    0  0.00000000000E+00  0.00000000000E+00  0.18154468171E+04  0.18154468171E+04  0.00000000000E+00 0. -1.
          2   -1    0    0  502    0 -0.00000000000E+00 -0.00000000000E+00 -0.16472344360E+04  0.16472344360E+04  0.00000000000E+00 0. -1.
         24    2    1    2    0    0 -0.26456127146E+03  0.33970088869E+03 -0.82450093042E+03  0.93360847688E+03  0.80209997611E+02 0.  0.
         25    2    1    2    0    0  0.28736172391E+03 -0.10813761592E+03 -0.28255765750E+03  0.43558507896E+03  0.12500010742E+03 0.  0.
         24    2    1    2    0    0 -0.26626617942E+02 -0.33658536712E+03  0.45359492180E+03  0.56813256891E+03  0.55023418886E+02 0.  0.
        -13    1    5    5    0    0  0.12744261531E+00 -0.27059693079E+03  0.36835246056E+03  0.45706263290E+03  0.00000000000E+00 0.  1.
         14    1    5    5    0    0 -0.26754060558E+02 -0.65988436334E+02  0.85242461246E+02  0.11106993601E+03  0.00000000000E+00 0. -1.
        -13    1    3    3    0    0 -0.26110005459E+03  0.30796923331E+03 -0.78565762728E+03  0.88333243712E+03  0.00000000000E+00 0.  1.
         14    1    3    3    0    0 -0.34612168690E+01  0.31731655376E+02 -0.38843303138E+02  0.50276039759E+02  0.00000000000E+00 0. -1.
          5    1    4    4  501    0  0.26111267728E+01  0.76727752211E+01 -0.47953479465E+02  0.48860164300E+02  0.47000000000E+01 0. -1.
         -5    1    4    4    0  501  0.28475059714E+03 -0.11581039115E+03 -0.23460417803E+03  0.38672491466E+03  0.47000000000E+01 0. -1.
          1    1    1    2  502    0  0.89576399617E+00  0.35854971037E+02 -0.34990103164E+03  0.35173443574E+03  0.00000000000E+00 0. -1.
          1    1    1    2  503    0  0.29304014952E+01  0.69167123324E+02  0.11715770789E+04  0.11736206926E+04  0.00000000000E+00 0. -1.
<mgrwt>
<rscale>  0 0.49839725E+02</rscale>
<asrwt>0</asrwt>
<pdfrwt beam="1">  1        2 0.26697747E+00 0.69257436E+02</pdfrwt>
<pdfrwt beam="2">  1        2 0.24224036E+00 0.35866159E+02</pdfrwt>
<totfact> 0.26978611E+01</totfact>
</mgrwt>
</event>
<event>
13    1  0.1595792E-008  0.2432239E+03  0.7546771E-02  0.1262612E+00
          2   -1    0    0  502    0  0.00000000000E+00  0.00000000000E+00  0.29666689284E+03  0.29666689284E+03  0.00000000000E+00 0. -1.
          2   -1    0    0  503    0 -0.00000000000E+00 -0.00000000000E+00 -0.32304945706E+04  0.32304945706E+04  0.00000000000E+00 0. -1.
         24    2    1    2    0    0  0.82695944123E+02 -0.69408989321E+02 -0.35782110675E+03  0.38237362023E+03  0.80730502508E+02 0.  0.
         25    2    1    2    0    0  0.26782412924E+03  0.78154046834E+02 -0.58160921017E+03  0.65706219360E+03  0.12499453455E+03 0.  0.
         24    2    1    2    0    0 -0.21918987981E+03 -0.19547488159E+03 -0.37006698911E+03  0.47920829165E+03  0.80227037956E+02 0.  0.
        -11    1    5    5    0    0 -0.25276730782E+02 -0.35926962661E+02 -0.10632082503E+03  0.11503815715E+03  0.00000000000E+00 0.  1.
         12    1    5    5    0    0 -0.19391314903E+03 -0.15954791893E+03 -0.26374616408E+03  0.36417013451E+03  0.00000000000E+00 0. -1.
        -13    1    3    3    0    0  0.19746963611E+01  0.16672288261E+02 -0.46328125694E+02  0.49276361999E+02  0.00000000000E+00 0.  1.
         14    1    3    3    0    0  0.80721247762E+02 -0.86081277581E+02 -0.31149298106E+03  0.33309725823E+03  0.00000000000E+00 0. -1.
          5    1    4    4  501    0  0.23901055801E+03  0.85521464041E+02 -0.40571246713E+03  0.47860700333E+03  0.47000000000E+01 0.  1.
         -5    1    4    4    0  501  0.28813571232E+02 -0.73674172069E+01 -0.17589674304E+03  0.17845519027E+03  0.47000000000E+01 0.  1.
          1    1    1    2  502    0 -0.10671667340E+03  0.22882461112E+03  0.10863584001E+03  0.27486523383E+03  0.00000000000E+00 0. -1.
          1    1    1    2  503    0 -0.24613520158E+02 -0.42094787047E+02 -0.17329662118E+04  0.17336521242E+04  0.00000000000E+00 0. -1.
<mgrwt>
<rscale>  0 0.10890474E+03</rscale>
<asrwt>0</asrwt>
<pdfrwt beam="1">  1        2 0.43627481E-01 0.24322390E+03</pdfrwt>
<pdfrwt beam="2">  1        2 0.47507277E+00 0.48762654E+02</pdfrwt>
<totfact> 0.44210671E+01</totfact>
</mgrwt>
</event>
<event>
13    1  0.1595792E-008  0.6578334E+02  0.7546771E-02  0.1469194E+00
         -1   -1    0    0    0  501 -0.00000000000E+00  0.00000000000E+00  0.26437065390E+03  0.26437065390E+03  0.00000000000E+00 0.  1.
          2   -1    0    0  503    0  0.00000000000E+00 -0.00000000000E+00 -0.40328490174E+04  0.40328490174E+04  0.00000000000E+00 0. -1.
         24    2    1    2    0    0 -0.47885556930E+01  0.10559881099E+02 -0.96599590705E+02  0.12919571384E+03  0.85003589314E+02 0.  0.
         25    2    1    2    0    0 -0.62853522861E+02  0.66043499560E+02 -0.46686774998E+03  0.49183849626E+03  0.12500920470E+03 0.  0.
         24    2    1    2    0    0 -0.10257148773E+02 -0.28366661683E+02 -0.47118017471E+03  0.47882907934E+03  0.79728624599E+02 0.  0.
        -11    1    3    3    0    0 -0.17972086767E+02 -0.22662392957E+02 -0.30904242019E+01  0.29088325477E+02  0.00000000000E+00 0.  1.
         12    1    3    3    0    0  0.13183531074E+02  0.33222274057E+02 -0.93509166504E+02  0.10010738836E+03  0.00000000000E+00 0. -1.
        -13    1    5    5    0    0  0.19526927053E+02 -0.28911694150E+02 -0.90606389776E+02  0.97091219001E+02  0.00000000000E+00 0.  1.
         14    1    5    5    0    0 -0.29784075826E+02  0.54503246699E+00 -0.38057378493E+03  0.38173786033E+03  0.00000000000E+00 0. -1.
          5    1    4    4  502    0 -0.55790547909E+02  0.77514619192E+02 -0.17334251495E+03  0.19796671163E+03  0.47000000000E+01 0. -1.
         -5    1    4    4    0  502 -0.70629749526E+01 -0.11471119631E+02 -0.29352523503E+03  0.29387178462E+03  0.47000000000E+01 0. -1.
          1    1    1    2  503    0  0.31907804662E+02 -0.13440447295E+01 -0.29608521614E+04  0.29610243897E+04  0.00000000000E+00 0. -1.
         -2    1    1    2    0  501  0.45991422665E+02 -0.46892674247E+02  0.22702131330E+03  0.23633199222E+03  0.00000000000E+00 0.  1.
<mgrwt>
<rscale>  0 0.45835174E+02</rscale>
<asrwt>0</asrwt>
<pdfrwt beam="2">  1        2 0.59306599E+00 0.31936100E+02</pdfrwt>
<pdfrwt beam="1">  1       -1 0.38878040E-01 0.65783335E+02</pdfrwt>
<totfact> 0.67415207E+00</totfact>
</mgrwt>
</event>
<event>
13    1  0.1595792E-008  0.1987780E+03  0.7546771E-02  0.1331440E+00
          2   -1    0    0  503    0  0.00000000000E+00  0.00000000000E+00  0.95657621020E+03  0.95657621020E+03  0.00000000000E+00 0. -1.
          2   -1    0    0  502    0 -0.00000000000E+00 -0.00000000000E+00 -0.28155428104E+04  0.28155428104E+04  0.00000000000E+00 0. -1.
         24    2    1    2    0    0 -0.33954132321E+03 -0.25219381703E+03 -0.10935637265E+04  0.11755790825E+04  0.84938352296E+02 0.  0.
         25    2    1    2    0    0  0.25448636383E+03  0.14590615928E+02  0.36886312255E+03  0.46546757422E+03  0.12499545600E+03 0.  0.
         24    2    1    2    0    0  0.63328041369E+02  0.57040969609E+02  0.49057262558E+02  0.12693327415E+03  0.80257884596E+02 0.  0.
        -11    1    5    5    0    0  0.75049001858E+02  0.21232301368E+02  0.42053952768E+02  0.88609808964E+02  0.00000000000E+00 0.  1.
         12    1    5    5    0    0 -0.11720960489E+02  0.35808668241E+02  0.70033097905E+01  0.38323465188E+02  0.00000000000E+00 0. -1.
        -11    1    3    3    0    0 -0.18808298822E+03 -0.11162648976E+03 -0.65991305270E+03  0.69521286007E+03  0.00000000000E+00 0.  1.
         12    1    3    3    0    0 -0.15145833499E+03 -0.14056732727E+03 -0.43365067379E+03  0.48036622239E+03  0.00000000000E+00 0. -1.
          5    1    4    4  501    0 -0.17329676871E+01  0.20867663633E+02  0.81678058360E+01  0.22962265016E+02  0.47000000000E+01 0.  1.
         -5    1    4    4    0  501  0.25621933152E+03 -0.62770477042E+01  0.36069531672E+03  0.44250530920E+03  0.47000000000E+01 0.  1.
          1    1    1    2  502    0  0.51373071841E+02  0.19129062495E+03 -0.15869600864E+04  0.15992728384E+04  0.00000000000E+00 0. -1.
          1    1    1    2  503    0 -0.29646153826E+02 -0.10728393465E+02  0.40363682764E+03  0.40486625136E+03  0.00000000000E+00 0. -1.
<mgrwt>
<rscale>  0 0.79164401E+02</rscale>
<asrwt>0</asrwt>
<pdfrwt beam="1">  1        2 0.14067297E+00 0.31527652E+02</pdfrwt>
<pdfrwt beam="2">  1        2 0.41405041E+00 0.19877796E+03</pdfrwt>
<totfact> 0.16813248E+01</totfact>
</mgrwt>
</event>
<event>
13    1  0.1595792E-008  0.8697035E+02  0.7546771E-02  0.1422413E+00
          2   -1    0    0  502    0  0.00000000000E+00  0.00000000000E+00  0.20003413136E+04  0.20003413136E+04  0.00000000000E+00 0. -1.
          2   -1    0    0  503    0 -0.00000000000E+00 -0.00000000000E+00 -0.36253780690E+04  0.36253780690E+04  0.00000000000E+00 0. -1.
         24    2    1    2    0    0  0.37890732803E+02 -0.84430096431E+02 -0.57415547381E+03  0.58654124374E+03  0.76236301617E+02 0.  0.
         25    2    1    2    0    0 -0.19973053853E+01  0.25399537775E+01 -0.41246789387E+03  0.43100357436E+03  0.12499550810E+03 0.  0.
         24    2    1    2    0    0 -0.32299115593E+01 -0.35200659175E+02  0.49024919481E+02  0.11463027995E+03  0.97401948729E+02 0.  0.
        -11    1    3    3    0    0  0.46791909074E+02 -0.14386199619E+02 -0.21367981097E+03  0.21921566347E+03  0.00000000000E+00 0.  1.
         12    1    3    3    0    0 -0.89011762714E+01 -0.70043896812E+02 -0.36047566284E+03  0.36732558026E+03  0.00000000000E+00 0. -1.
        -13    1    5    5    0    0 -0.36463293703E+02 -0.51930084351E+01  0.58246372190E+02  0.68914287325E+02  0.00000000000E+00 0.  1.
         14    1    5    5    0    0  0.33233382144E+02 -0.30007650740E+02 -0.92214527083E+01  0.45715992625E+02  0.00000000000E+00 0. -1.
          5    1    4    4  501    0  0.49755320484E+02  0.33548261521E+02 -0.26194665765E+03  0.26877354636E+03  0.47000000000E+01 0. -1.
         -5    1    4    4    0  501 -0.51752625869E+02 -0.31008307743E+02 -0.15052123622E+03  0.16223002800E+03  0.47000000000E+01 0. -1.
          1    1    1    2  502    0  0.14243131303E+00  0.10753396593E+03  0.19014210728E+04  0.19044594168E+04  0.00000000000E+00 0. -1.
          1    1    1    2  503    0 -0.32805947171E+02  0.95568358969E+01 -0.25888593800E+04  0.25890848678E+04  0.00000000000E+00 0. -1.
<mgrwt>
<rscale>  0 0.54513707E+02</rscale>
<asrwt>0</asrwt>
<pdfrwt beam="1">  1        2 0.29416784E+00 0.86970349E+02</pdfrwt>
<pdfrwt beam="2">  1        2 0.53314383E+00 0.34169625E+02</pdfrwt>
<totfact> 0.22986641E+00</totfact>
</mgrwt>
</event>
<event>
13    1  0.1595792E-008  0.1692353E+03  0.7546771E-02  0.1365192E+00
          2   -1    0    0  503    0  0.00000000000E+00  0.00000000000E+00  0.33495875804E+04  0.33495875804E+04  0.00000000000E+00 0. -1.
         -3   -1    0    0    0  501 -0.00000000000E+00 -0.00000000000E+00 -0.72793088087E+03  0.72793088087E+03  0.00000000000E+00 0.  1.
         24    2    1    2    0    0  0.12693519944E+02 -0.45370571583E+02 -0.15515426351E+02  0.94604017224E+02  0.80557913366E+02 0.  0.
         25    2    1    2    0    0  0.28210124874E+03  0.90641715486E+02  0.21246551101E+03  0.38544046510E+03  0.12500289454E+03 0.  0.
         24    2    1    2    0    0 -0.10726180338E+03 -0.10419359229E+03  0.54617496228E+02  0.17706928109E+03  0.77518128676E+02 0.  0.
        -13    1    5    5    0    0 -0.41836159408E+02 -0.92652353815E+02  0.27512457345E+02  0.10531694171E+03  0.00000000000E+00 0.  1.
         14    1    5    5    0    0 -0.65425643967E+02 -0.11541238479E+02  0.27105038883E+02  0.71752339383E+02  0.00000000000E+00 0. -1.
        -13    1    3    3    0    0  0.14388979960E+01 -0.67602500894E+02 -0.16727657547E+02  0.69656177627E+02  0.00000000000E+00 0.  1.
         14    1    3    3    0    0  0.11254621948E+02  0.22231929311E+02  0.12122311963E+01  0.24947839597E+02  0.00000000000E+00 0. -1.
          5    1    4    4  502    0  0.10026463293E+03 -0.25633852971E+02  0.90046899444E+02  0.13726115668E+03  0.47000000000E+01 0. -1.
         -5    1    4    4    0  502  0.18183661581E+03  0.11627556846E+03  0.12241861157E+03  0.24817930842E+03  0.47000000000E+01 0. -1.
          1    1    1    2  503    0 -0.25032726297E+02  0.11962527807E+02  0.28815579364E+04  0.28816914964E+04  0.00000000000E+00 0. -1.
         -4    1    1    2    0  501 -0.16250023901E+03  0.46959920584E+02 -0.51146881779E+03  0.53871320143E+03  0.00000000000E+00 0.  1.
<mgrwt>
<rscale>  0 0.68522220E+02</rscale>
<asrwt>0</asrwt>
<pdfrwt beam="1">  1        2 0.49258640E+00 0.27744179E+02</pdfrwt>
<pdfrwt beam="2">  1       -3 0.10704866E+00 0.16923531E+03</pdfrwt>
<totfact> 0.11283923E+00</totfact>
</mgrwt>
</event>
<event>
13    1  0.1595792E-008  0.6983095E+02  0.7546771E-02  0.1473551E+00
          2   -1    0    0  502    0  0.00000000000E+00  0.00000000000E+00  0.28324365476E+03  0.28324365476E+03  0.00000000000E+00 0. -1.
          2   -1    0    0  503    0 -0.00000000000E+00 -0.00000000000E+00 -0.18446591439E+04  0.18446591439E+04  0.00000000000E+00 0. -1.
         24    2    1    2    0    0 -0.66372327092E+02 -0.38331962493E+02 -0.14216576310E+03  0.17898730341E+03  0.77140945252E+02 0.  0.
         25    2    1    2    0    0 -0.93297295231E+02  0.13712836290E+03  0.38422230597E+02  0.21120888270E+03  0.12499740445E+03 0.  0.
         24    2    1    2    0    0  0.10110741757E+03 -0.32463009960E+02 -0.26072367716E+02  0.13587241629E+03  0.80653507341E+02 0.  0.
        -11    1    3    3    0    0 -0.76524964972E+00  0.20363673263E+02 -0.32494734875E+02  0.38355867745E+02  0.00000000000E+00 0.  1.
         12    1    3    3    0    0 -0.65607077443E+02 -0.58695635757E+02 -0.10967102822E+03  0.14063143567E+03  0.00000000000E+00 0. -1.
        -11    1    5    5    0    0 -0.11599345683E+02 -0.10299843404E+02  0.59704003653E+01  0.16621590626E+02  0.00000000000E+00 0.  1.
         12    1    5    5    0    0  0.11270676325E+03 -0.22163166556E+02 -0.32042768081E+02  0.11925082566E+03  0.00000000000E+00 0. -1.
          5    1    4    4  501    0 -0.47711743508E+02  0.13856730165E+03  0.62534897316E+02  0.15940517852E+03  0.47000000000E+01 0. -1.
         -5    1    4    4    0  501 -0.45585551723E+02 -0.14389387540E+01 -0.24112666719E+02  0.51803704181E+02  0.47000000000E+01 0. -1.
          1    1    1    2  502    0 -0.47881604894E+00 -0.29158464093E+02  0.81791933821E+02  0.86835279301E+02  0.00000000000E+00 0. -1.
          1    1    1    2  503    0  0.59041020802E+02 -0.37174926354E+02 -0.15133915228E+04  0.15149989170E+04  0.00000000000E+00 0. -1.
<mgrwt>
<rscale>  0 0.45126907E+02</rscale>
<asrwt>0</asrwt>
<pdfrwt beam="1">  1        2 0.41653478E-01 0.29162395E+02</pdfrwt>
<pdfrwt beam="2">  1        2 0.27127341E+00 0.69830949E+02</pdfrwt>
<totfact> 0.20780708E+02</totfact>
</mgrwt>
</event>
<event>
13    1  0.1595792E-008  0.2830316E+03  0.7546771E-02  0.1226151E+00
          2   -1    0    0  502    0  0.00000000000E+00  0.00000000000E+00  0.32867877523E+04  0.32867877523E+04  0.00000000000E+00 0. -1.
          2   -1    0    0  503    0 -0.00000000000E+00 -0.00000000000E+00 -0.85302942395E+03  0.85302942395E+03  0.00000000000E+00 0. -1.
         24    2    1    2    0    0 -0.49760769566E+01  0.27473296278E+02 -0.18493851956E+03  0.20310180674E+03  0.79174140566E+02 0.  0.
         25    2    1    2    0    0  0.23779261720E+03  0.35556209799E+02  0.15410811962E+03  0.31176822851E+03  0.12506215625E+03 0.  0.
         24    2    1    2    0    0 -0.80659491848E+02  0.19549039295E+03  0.48753412852E+03  0.53751946940E+03  0.80716826927E+02 0.  0.
        -11    1    5    5    0    0 -0.91634281805E+02  0.17105257270E+03  0.45924067121E+03  0.49855573241E+03  0.00000000000E+00 0.  1.
         12    1    5    5    0    0  0.10974789957E+02  0.24437820252E+02  0.28293457310E+02  0.38963736985E+02  0.00000000000E+00 0. -1.
        -11    1    3    3    0    0 -0.17501556562E+02  0.35875629627E+02 -0.37099178188E+02  0.54495085150E+02  0.00000000000E+00 0.  1.
         12    1    3    3    0    0  0.12525479606E+02 -0.84023333486E+01 -0.14783934137E+03  0.14860672159E+03  0.00000000000E+00 0. -1.
          5    1    4    4  501    0  0.10158164146E+03 -0.46618620718E+02  0.64110509150E+02  0.12893553840E+03  0.47000000000E+01 0. -1.
         -5    1    4    4    0  501  0.13621097574E+03  0.82174830517E+02  0.89997610467E+02  0.18283269011E+03  0.47000000000E+01 0. -1.
          1    1    1    2  502    0 -0.19654873509E+03 -0.21737799289E+03  0.25220812414E+04  0.25390506859E+04  0.00000000000E+00 0. -1.
          1    1    1    2  503    0  0.44391686686E+02 -0.41141906133E+02 -0.54502664169E+03  0.54837698569E+03  0.00000000000E+00 0. -1.
<mgrwt>
<rscale>  0 0.13088351E+03</rscale>
<asrwt>0</asrwt>
<pdfrwt beam="1">  1        2 0.48335114E+00 0.28303159E+03</pdfrwt>
<pdfrwt beam="2">  1        2 0.12544550E+00 0.60525022E+02</pdfrwt>
<totfact> 0.97705285E+00</totfact>
</mgrwt>
</event>
<event>
13    1  0.1595792E-008  0.1547955E+03  0.7546771E-02  0.1338074E+00
          2   -1    0    0  502    0  0.00000000000E+00  0.00000000000E+00  0.13877192155E+04  0.13877192155E+04  0.00000000000E+00 0. -1.
          2   -1    0    0  503    0 -0.00000000000E+00 -0.00000000000E+00 -0.49350329554E+04  0.49350329554E+04  0.00000000000E+00 0. -1.
         24    2    1    2    0    0 -0.17121881325E+03  0.29540534457E+03 -0.84044637948E+03  0.91056707590E+03  0.78753306668E+02 0.  0.
         25    2    1    2    0    0  0.51795086562E+03 -0.36387779726E+03 -0.13030243388E+04  0.14540213797E+04  0.12500237781E+03 0.  0.
         24    2    1    2    0    0 -0.29331105876E+03 -0.59196684198E+02  0.14419899863E+03  0.34666005683E+03  0.99218038613E+02 0.  0.
        -11    1    3    3    0    0 -0.11645863549E+03  0.21381802969E+03 -0.49848738940E+03  0.55477062016E+03  0.00000000000E+00 0.  1.
         12    1    3    3    0    0 -0.54760177761E+02  0.81587314881E+02 -0.34195899008E+03  0.35579645574E+03  0.00000000000E+00 0. -1.
        -11    1    5    5    0    0 -0.20125347046E+03 -0.86044331393E+02  0.91404991093E+02  0.23719498042E+03  0.00000000000E+00 0.  1.
         12    1    5    5    0    0 -0.92057588293E+02  0.26847647194E+02  0.52794007535E+02  0.10946507641E+03  0.00000000000E+00 0. -1.
          5    1    4    4  501    0  0.12819878722E+03 -0.16078754525E+03 -0.41196064770E+03  0.46045762998E+03  0.47000000000E+01 0.  1.
         -5    1    4    4    0  501  0.38975207840E+03 -0.20309025201E+03 -0.89106369113E+03  0.99356374970E+03  0.47000000000E+01 0.  1.
          1    1    1    2  502    0 -0.28659294466E+02 -0.25266829747E+02  0.10290499484E+04  0.10297589836E+04  0.00000000000E+00 0. -1.
          1    1    1    2  503    0 -0.24761699149E+02  0.15293596663E+03 -0.25770919687E+04  0.25817446749E+04  0.00000000000E+00 0. -1.
<mgrwt>
<rscale>  0 0.76904213E+02</rscale>
<asrwt>0</asrwt>
<pdfrwt beam="1">  1        2 0.20407635E+00 0.38206908E+02</pdfrwt>
<pdfrwt beam="2">  1        2 0.72574016E+00 0.15479551E+03</pdfrwt>
<totfact> 0.36581524E-01</totfact>
</mgrwt>
</event>
<event>
13    1  0.1595792E-008  0.9528057E+02  0.7546771E-02  0.1446063E+00
          2   -1    0    0  503    0  0.00000000000E+00  0.00000000000E+00  0.25451762570E+04  0.25451762570E+04  0.00000000000E+00 0. -1.
          2   -1    0    0  502    0 -0.00000000000E+00 -0.00000000000E+00 -0.13666995373E+04  0.13666995373E+04  0.00000000000E+00 0. -1.
         24    2    1    2    0    0  0.30979273037E+02  0.34864860520E+02 -0.10109531128E+02  0.92912208570E+02  0.79719520977E+02 0.  0.
         25    2    1    2    0    0 -0.71330203860E+02  0.38376304296E+03 -0.20509629425E+03  0.45831431992E+03  0.12500181920E+03 0.  0.
         24    2    1    2    0    0  0.55744973567E+02 -0.27099626152E+03  0.15858681084E+04  0.16118151324E+04  0.80149161108E+02 0.  0.
        -13    1    5    5    0    0  0.29179592719E+02 -0.19433399422E+02  0.18612647787E+03  0.18939950213E+03  0.00000000000E+00 0.  1.
         14    1    5    5    0    0  0.26565380848E+02 -0.25156286210E+03  0.13997416305E+04  0.14224156303E+04  0.00000000000E+00 0. -1.
        -13    1    3    3    0    0 -0.18938226439E+02  0.30498445681E+02 -0.21060257455E+02  0.41621461455E+02  0.00000000000E+00 0.  1.
         14    1    3    3    0    0  0.49917499476E+02  0.43664148392E+01  0.10950726327E+02  0.51290747115E+02  0.00000000000E+00 0. -1.
          5    1    4    4  501    0 -0.70931963706E+02  0.10891295219E+03 -0.99837732697E+02  0.16396047542E+03  0.47000000000E+01 0. -1.
         -5    1    4    4    0  501 -0.39824015400E+00  0.27485009077E+03 -0.10525856155E+03  0.29435384450E+03  0.47000000000E+01 0. -1.
          1    1    1    2  502    0 -0.25723045053E+02 -0.12366431699E+03 -0.96617914289E+03  0.97440067452E+03  0.00000000000E+00 0. -1.
          1    1    1    2  503    0  0.10329002308E+02 -0.23967324974E+02  0.77399357955E+03  0.77443345882E+03  0.00000000000E+00 0. -1.
<mgrwt>
<rscale>  0 0.49866426E+02</rscale>
<asrwt>0</asrwt>
<pdfrwt beam="1">  1        2 0.37429063E+00 0.26098294E+02</pdfrwt>
<pdfrwt beam="2">  1        2 0.20098523E+00 0.95280573E+02</pdfrwt>
<totfact> 0.17578608E+01</totfact>
</mgrwt>
</event>
<event>
13    1  0.1595792E-008  0.1275373E+03  0.7546771E-02  0.1280461E+00
          2   -1    0    0  503    0  0.00000000000E+00  0.00000000000E+00  0.43748609466E+03  0.43748609466E+03  0.00000000000E+00 0. -1.
          2   -1    0    0  502    0 -0.00000000000E+00 -0.00000000000E+00 -0.17265505899E+04  0.17265505899E+04  0.00000000000E+00 0. -1.
         24    2    1    2    0    0  0.18567946817E+02 -0.40511076925E+01 -0.41387441896E+03  0.42202857234E+03  0.80342399001E+02 0.  0.
         25    2    1    2    0    0  0.23812054766E+01 -0.10859604485E+02 -0.24568248071E+03  0.27588214592E+03  0.12500990344E+03 0.  0.
         24    2    1    2    0    0  0.26453439102E+01 -0.77857686959E+02 -0.28227407498E+02  0.11538916876E+03  0.80306017650E+02 0.  0.
        -13    1    3    3    0    0  0.17538617798E+02 -0.39854977103E+02 -0.16764692696E+03  0.17320945249E+03  0.00000000000E+00 0.  1.
         14    1    3    3    0    0  0.10293290188E+01  0.35803869411E+02 -0.24622749201E+03  0.24881911985E+03  0.00000000000E+00 0. -1.
        -13    1    5    5    0    0  0.10923530351E+02 -0.54540102181E+02 -0.55492237773E+02  0.78570571554E+02  0.00000000000E+00 0.  1.
         14    1    5    5    0    0 -0.82781864403E+01 -0.23317584778E+02  0.27264830274E+02  0.36818597210E+02  0.00000000000E+00 0. -1.
          5    1    4    4  501    0  0.50679240631E+02 -0.72404189206E+01 -0.41756232639E+02  0.66230522128E+02  0.47000000000E+01 0.  1.
         -5    1    4    4    0  501 -0.48298035155E+02 -0.36191855648E+01 -0.20392624807E+03  0.20965162379E+03  0.47000000000E+01 0.  1.
          1    1    1    2  502    0 -0.81670477831E+02 -0.26810570933E+02 -0.96224217531E+03  0.96607395038E+03  0.00000000000E+00 0. -1.
          1    1    1    2  503    0  0.58075981628E+02  0.11957897007E+03  0.36096198725E+03  0.38466284714E+03  0.00000000000E+00 0. -1.
<mgrwt>
<rscale>  0 0.99921348E+02</rscale>
<asrwt>0</asrwt>
<pdfrwt beam="1">  1        2 0.64336190E-01 0.12753735E+03</pdfrwt>
<pdfrwt beam="2">  1        2 0.25390450E+00 0.78285116E+02</pdfrwt>
<totfact> 0.15070857E+02</totfact>
</mgrwt>
</event>
<event>
13    1  0.1595792E-008  0.1046712E+03  0.7546771E-02  0.1426067E+00
          2   -1    0    0  503    0  0.00000000000E+00  0.00000000000E+00  0.37419740048E+04  0.37419740048E+04  0.00000000000E+00 0. -1.
          2   -1    0    0  502    0 -0.00000000000E+00 -0.00000000000E+00 -0.27708806225E+04  0.27708806225E+04  0.00000000000E+00 0. -1.
         24    2    1    2    0    0 -0.71747571549E+03 -0.32586560085E+03 -0.53119460359E+03  0.95534849888E+03  0.97791897992E+02 0.  0.
         25    2    1    2    0    0  0.60108927659E+03 -0.25653282767E+03  0.14980646749E+04  0.16391888078E+04  0.12499906998E+03 0.  0.
         24    2    1    2    0    0  0.76058664855E+02  0.51518878736E+03  0.72528483662E+03  0.89642827864E+03  0.79631384484E+02 0.  0.
        -11    1    3    3    0    0 -0.25667757675E+03 -0.99442278416E+02 -0.13359487935E+03  0.30597342520E+03  0.00000000000E+00 0.  1.
         12    1    3    3    0    0 -0.46079813874E+03 -0.22642332244E+03 -0.39759972424E+03  0.64937507368E+03  0.00000000000E+00 0. -1.
        -13    1    5    5    0    0  0.70277386521E+02  0.23580701684E+03  0.37145733982E+03  0.44556078772E+03  0.00000000000E+00 0.  1.
         14    1    5    5    0    0  0.57812783341E+01  0.27938177052E+03  0.35382749680E+03  0.45086749092E+03  0.00000000000E+00 0. -1.
          5    1    4    4  501    0  0.45664091102E+03 -0.15195280101E+03  0.11824870377E+04  0.12766786047E+04  0.47000000000E+01 0.  1.
         -5    1    4    4    0  501  0.14444836558E+03 -0.10458002666E+03  0.31557763717E+03  0.36251020314E+03  0.47000000000E+01 0.  1.
          1    1    1    2  502    0  0.45333858920E+02  0.94361283671E+02 -0.18698453110E+04  0.18727735308E+04  0.00000000000E+00 0. -1.
          1    1    1    2  503    0 -0.50060848811E+01 -0.27151642506E+02  0.11487837853E+04  0.11491155112E+04  0.00000000000E+00 0. -1.
<mgrwt>
<rscale>  0 0.53757763E+02</rscale>
<asrwt>0</asrwt>
<pdfrwt beam="1">  1        2 0.55029029E+00 0.27609284E+02</pdfrwt>
<pdfrwt beam="2">  1        2 0.40748245E+00 0.10467121E+03</pdfrwt>
<totfact> 0.84052746E-01</totfact>
</mgrwt>
</event>
<event>
13    1  0.1595792E-008  0.1426646E+03  0.7546771E-02  0.1283264E+00
          2   -1    0    0  503    0  0.00000000000E+00  0.00000000000E+00  0.58532889523E+03  0.58532889523E+03  0.00000000000E+00 0. -1.
         -1   -1    0    0    0  501 -0.00000000000E+00 -0.00000000000E+00 -0.17008756560E+04  0.17008756560E+04  0.00000000000E+00 0.  1.
         24    2    1    2    0    0 -0.15037636559E+03 -0.41346015505E+02 -0.16719858725E+03  0.24213487997E+03  0.79695597065E+02 0.  0.
         25    2    1    2    0    0  0.17964493508E+03 -0.41289147467E+02 -0.12720685482E+03  0.25648130250E+03  0.12499591282E+03 0.  0.
         24    2    1    2    0    0 -0.69611002315E+02  0.15322037621E+03  0.40129869048E+02  0.18979047347E+03  0.78024624951E+02 0.  0.
        -11    1    3    3    0    0 -0.63147600380E+02 -0.55054591360E+02 -0.58942368687E+02  0.10243451708E+03  0.00000000000E+00 0.  1.
         12    1    3    3    0    0 -0.87228765212E+02  0.13708575855E+02 -0.10825621856E+03  0.13970036289E+03  0.00000000000E+00 0. -1.
        -13    1    5    5    0    0 -0.34688514849E+02  0.13840652829E+03  0.48938931885E+02  0.15084654186E+03  0.00000000000E+00 0.  1.
         14    1    5    5    0    0 -0.34922487466E+02  0.14813847920E+02 -0.88090628376E+01  0.38943931608E+02  0.00000000000E+00 0. -1.
          5    1    4    4  502    0  0.12657732066E+03 -0.83620289710E+02 -0.68122408830E+02  0.16636382883E+03  0.47000000000E+01 0. -1.
         -5    1    4    4    0  502  0.53067614412E+02  0.42331142243E+02 -0.59084445994E+02  0.90117473674E+02  0.47000000000E+01 0. -1.
          1    1    1    2  503    0 -0.59706422228E+02  0.32852265942E+02  0.36085236232E+03  0.36723092956E+03  0.00000000000E+00 0. -1.
         -2    1    1    2    0  501  0.10004885506E+03 -0.10343747918E+03 -0.12221235501E+04  0.12305669657E+04  0.00000000000E+00 0.  1.
<mgrwt>
<rscale>  0 0.98601647E+02</rscale>
<asrwt>0</asrwt>
<pdfrwt beam="1">  1        2 0.86077781E-01 0.68147841E+02</pdfrwt>
<pdfrwt beam="2">  1       -1 0.25012877E+00 0.14266461E+03</pdfrwt>
<totfact> 0.54895462E+00</totfact>
</mgrwt>
</event>
<event>
13    1  0.1595792E-008  0.7804601E+02  0.7546771E-02  0.1447131E+00
         -1   -1    0    0    0  501 -0.00000000000E+00  0.00000000000E+00  0.21998640011E+04  0.21998640011E+04  0.00000000000E+00 0.  1.
          2   -1    0    0  503    0  0.00000000000E+00 -0.00000000000E+00 -0.11674993855E+04  0.11674993855E+04  0.00000000000E+00 0. -1.
         24    2    1    2    0    0  0.48824904345E+02  0.14886276795E+03  0.16812889282E+04  0.16906370182E+04  0.83528871834E+02 0.  0.
         25    2    1    2    0    0 -0.13034531192E+03 -0.10862082405E+03  0.12608743562E+02  0.21111951514E+03  0.12499634196E+03 0.  0.
         24    2    1    2    0    0  0.35494755489E+02 -0.26264601757E+02 -0.11048291058E+03  0.14573992824E+03  0.84166181933E+02 0.  0.
        -11    1    3    3    0    0  0.55809803220E+02  0.15158497352E+03  0.16636168366E+04  0.16714406114E+04  0.00000000000E+00 0.  1.
         12    1    3    3    0    0 -0.69848988759E+01 -0.27222055635E+01  0.17672091573E+02  0.19196406852E+02  0.00000000000E+00 0. -1.
        -11    1    5    5    0    0  0.33569417689E+02  0.26012636747E+02 -0.54938883121E+02  0.69439498508E+02  0.00000000000E+00 0.  1.
         12    1    5    5    0    0  0.19253377995E+01 -0.52277238504E+02 -0.55544027463E+02  0.76300429737E+02  0.00000000000E+00 0. -1.
          5    1    4    4  502    0 -0.77597230376E+02  0.99289079964E+01  0.20601534471E+02  0.81033490599E+02  0.47000000000E+01 0. -1.
         -5    1    4    4    0  502 -0.52748081539E+02 -0.11854973204E+03 -0.79927909090E+01  0.13008602454E+03  0.47000000000E+01 0. -1.
          1    1    1    2  503    0  0.69995009388E+02 -0.34585649408E+02 -0.93317577414E+03  0.93643605971E+03  0.00000000000E+00 0. -1.
         -2    1    1    2    0  501 -0.23969357307E+02  0.20608307257E+02  0.38212562855E+03  0.38343086523E+03  0.00000000000E+00 0.  1.
<mgrwt>
<rscale>  0 0.49669752E+02</rscale>
<asrwt>0</asrwt>
<pdfrwt beam="2">  1        2 0.17169109E+00 0.78046013E+02</pdfrwt>
<pdfrwt beam="1">  1       -1 0.32350941E+00 0.31610638E+02</pdfrwt>
<totfact> 0.10275543E+00</totfact>
</mgrwt>
</event>
<event>
13    1  0.1595792E-008  0.1826686E+02  0.7546771E-02  0.1823672E+00
          2   -1    0    0  502    0  0.00000000000E+00  0.00000000000E+00  0.10803875849E+04  0.10803875849E+04  0.00000000000E+00 0. -1.
          2   -1    0    0  503    0 -0.00000000000E+00 -0.00000000000E+00 -0.22993474283E+04  0.22993474283E+04  0.00000000000E+00 0. -1.
         24    2    1    2    0    0  0.18457751673E+02 -0.45203696686E+03 -0.15361708654E+04  0.16035450551E+04  0.82811279548E+02 0.  0.
         25    2    1    2    0    0  0.89800961747E+02  0.43653117072E+02 -0.85080994408E+02  0.18119958353E+03  0.12499882440E+03 0.  0.
         24    2    1    2    0    0 -0.96091982301E+02  0.39281608230E+03  0.44059578725E+02  0.41498638144E+03  0.82062821827E+02 0.  0.
        -11    1    5    5    0    0 -0.45368025267E+02  0.22908690988E+03  0.64723136517E+02  0.24233892464E+03  0.00000000000E+00 0.  1.
         12    1    5    5    0    0 -0.50723957035E+02  0.16372917242E+03 -0.20663557792E+02  0.17264745680E+03  0.00000000000E+00 0. -1.
        -13    1    3    3    0    0 -0.21072936089E+02 -0.34319638359E+03 -0.11239397783E+04  0.11753588608E+04  0.00000000000E+00 0.  1.
         14    1    3    3    0    0  0.39530687762E+02 -0.10884058327E+03 -0.41223108714E+03  0.42818619436E+03  0.00000000000E+00 0. -1.
          5    1    4    4  501    0 -0.12832163361E+02  0.50358313384E+02 -0.50428092917E+02  0.72565189304E+02  0.47000000000E+01 0. -1.
         -5    1    4    4    0  501  0.10263312511E+03 -0.67051963122E+01 -0.34652901491E+02  0.10863439423E+03  0.47000000000E+01 0. -1.
          1    1    1    2  502    0 -0.18178700389E+02  0.17951918306E+01  0.76887229237E+03  0.76908925999E+03  0.00000000000E+00 0. -1.
          1    1    1    2  503    0  0.60119692703E+01  0.13772575654E+02 -0.41063985466E+03  0.41091473306E+03  0.00000000000E+00 0. -1.
<mgrwt>
<rscale>  0 0.16568233E+02</rscale>
<asrwt>0</asrwt>
<pdfrwt beam="1">  1        2 0.15888053E+00 0.18266859E+02</pdfrwt>
<pdfrwt beam="2">  1        2 0.33813932E+00 0.15027562E+02</pdfrwt>
<totfact> 0.38450717E+01</totfact>
</mgrwt>
</event>
<event>
13    1  0.1595792E-008  0.8266992E+02  0.7546771E-02  0.1365650E+00
          2   -1    0    0  503    0  0.00000000000E+00  0.00000000000E+00  0.28596056574E+04  0.28596056574E+04  0.00000000000E+00 0. -1.
         -1   -1    0    0    0  501 -0.00000000000E+00 -0.00000000000E+00 -0.15321057239E+04  0.15321057239E+04  0.00000000000E+00 0.  1.
         24    2    1    2    0    0 -0.48279610113E+02  0.84024492656E+02 -0.47435312640E+03  0.49099306301E+03  0.81683923037E+02 0.  0.
         25    2    1    2    0    0  0.20567249713E+03 -0.16699534654E+03 -0.10850902012E+02  0.29314614599E+03  0.12501319526E+03 0.  0.
         24    2    1    2    0    0 -0.36943676566E+02  0.70691496774E+02  0.54136544144E+02  0.12753203184E+03  0.83495693175E+02 0.  0.
        -11    1    5    5    0    0  0.72983954062E+00 -0.18000545058E+02  0.15310835170E+02  0.23642630178E+02  0.00000000000E+00 0.  1.
         12    1    5    5    0    0 -0.37673516106E+02  0.88692041831E+02  0.38825708974E+02  0.10388940166E+03  0.00000000000E+00 0. -1.
        -11    1    3    3    0    0 -0.27052638889E+02 -0.11125604427E+02 -0.11026508600E+03  0.11407897938E+03  0.00000000000E+00 0.  1.
         12    1    3    3    0    0 -0.21226971224E+02  0.95150097083E+02 -0.36408804040E+03  0.37691408364E+03  0.00000000000E+00 0. -1.
          5    1    4    4  502    0  0.18233841836E+03 -0.18739311615E+03 -0.11957187753E+02  0.26177956974E+03  0.47000000000E+01 0. -1.
         -5    1    4    4    0  502  0.23334078770E+02  0.20397769616E+02  0.11062857403E+01  0.31366576247E+02  0.47000000000E+01 0. -1.
          1    1    1    2  503    0 -0.48839627605E+02 -0.28563978650E+02  0.26170233836E+04  0.26176349250E+04  0.00000000000E+00 0. -1.
         -2    1    1    2    0  501 -0.71609582850E+02  0.40843335759E+02 -0.85845596580E+03  0.86240521546E+03  0.00000000000E+00 0.  1.
<mgrwt>
<rscale>  0 0.68391527E+02</rscale>
<asrwt>0</asrwt>
<pdfrwt beam="1">  1        2 0.42053024E+00 0.56579237E+02</pdfrwt>
<pdfrwt beam="2">  1       -1 0.22530967E+00 0.82669919E+02</pdfrwt>
<totfact> 0.55153045E-01</totfact>
</mgrwt>
</event>
<event>
13    1  0.1595792E-008  0.1275048E+03  0.7546771E-02  0.1265141E+00
          2   -1    0    0  503    0  0.00000000000E+00  0.00000000000E+00  0.15385485488E+04  0.15385485488E+04  0.00000000000E+00 0. -1.
          2   -1    0    0  502    0 -0.00000000000E+00 -0.00000000000E+00 -0.89384850974E+03  0.89384850974E+03  0.00000000000E+00 0. -1.
         24    2    1    2    0    0 -0.17421329568E+02  0.22043820477E+02 -0.16699622384E+02  0.84096762339E+02  0.77485194089E+02 0.  0.
         25    2    1    2    0    0 -0.84876355547E+02  0.16888986042E+03 -0.50142541680E+02  0.23209253050E+03  0.12499955017E+03 0.  0.
         24    2    1    2    0    0  0.33552299974E+02 -0.14974204841E+02  0.12732119665E+03  0.15417231591E+03  0.78793605281E+02 0.  0.
        -11    1    3    3    0    0 -0.30502714620E+02 -0.20619817027E+02 -0.11340539632E+01  0.36835832172E+02  0.00000000000E+00 0.  1.
         12    1    3    3    0    0  0.13081385053E+02  0.42663637503E+02 -0.15565568421E+02  0.47260930166E+02  0.00000000000E+00 0. -1.
        -13    1    5    5    0    0  0.49750595968E+02  0.15686084084E+02  0.80037853963E+02  0.95536553738E+02  0.00000000000E+00 0.  1.
         14    1    5    5    0    0 -0.16198295994E+02 -0.30660288926E+02  0.47283342687E+02  0.58635762174E+02  0.00000000000E+00 0. -1.
          5    1    4    4  501    0 -0.66267838104E+02  0.29306402903E+02 -0.55034548024E+02  0.91110828634E+02  0.47000000000E+01 0. -1.
         -5    1    4    4    0  501 -0.18608517443E+02  0.13958345752E+03  0.48920063440E+01  0.14098170186E+03  0.47000000000E+01 0. -1.
          1    1    1    2  502    0 -0.60208877332E+02 -0.85129379129E+02 -0.68003276690E+03  0.68798014808E+03  0.00000000000E+00 0. -1.
          1    1    1    2  503    0  0.12895426247E+03 -0.90830096929E+02  0.12642537734E+04  0.12740553017E+04  0.00000000000E+00 0. -1.
<mgrwt>
<rscale>  0 0.10756780E+03</rscale>
<asrwt>0</asrwt>
<pdfrwt beam="1">  1        2 0.22625714E+00 0.12750482E+03</pdfrwt>
<pdfrwt beam="2">  1        2 0.13144831E+00 0.90748188E+02</pdfrwt>
<totfact> 0.79829925E+01</totfact>
</mgrwt>
</event>
<event>
13    1  0.1595792E-008  0.8321278E+02  0.7546771E-02  0.1466109E+00
          2   -1    0    0  502    0  0.00000000000E+00  0.00000000000E+00  0.28161279130E+04  0.28161279130E+04  0.00000000000E+00 0. -1.
          2   -1    0    0  503    0 -0.00000000000E+00 -0.00000000000E+00 -0.16255982791E+04  0.16255982791E+04  0.00000000000E+00 0. -1.
         24    2    1    2    0    0 -0.14155134875E+02  0.19082990059E+02 -0.17855658259E+03  0.19773351002E+03  0.81557093169E+02 0.  0.
         25    2    1    2    0    0 -0.37160221708E+01  0.10451222200E+03  0.53858413590E+03  0.56270049519E+03  0.12498944946E+03 0.  0.
         24    2    1    2    0    0  0.29296799003E+02 -0.37909283640E+01  0.67285746191E+03  0.67812017202E+03  0.78975503064E+02 0.  0.
        -11    1    5    5    0    0  0.18422564950E+00  0.18627962760E+02  0.39232417640E+02  0.43430605908E+02  0.00000000000E+00 0.  1.
         12    1    5    5    0    0  0.29112573353E+02 -0.22418891124E+02  0.63362504427E+03  0.63468956611E+03  0.00000000000E+00 0. -1.
        -11    1    3    3    0    0 -0.23870506224E+02 -0.23055874046E+02 -0.36924669545E+02  0.49646808723E+02  0.00000000000E+00 0.  1.
         12    1    3    3    0    0  0.97153713485E+01  0.42138864105E+02 -0.14163191305E+03  0.14808670130E+03  0.00000000000E+00 0. -1.
          5    1    4    4  501    0 -0.80454852195E+01  0.11340227676E+03  0.53982093814E+03  0.55168246434E+03  0.47000000000E+01 0. -1.
         -5    1    4    4    0  501  0.43294630487E+01 -0.88900547670E+01 -0.12368022371E+01  0.11018030851E+02  0.47000000000E+01 0. -1.
          1    1    1    2  502    0  0.47854580696E+01 -0.25365347511E+02  0.15786893657E+04  0.15789003816E+04  0.00000000000E+00 0. -1.
          1    1    1    2  503    0 -0.16211100026E+02 -0.94438936179E+02 -0.14210447470E+04  0.14242716333E+04  0.00000000000E+00 0. -1.
<mgrwt>
<rscale>  0 0.46346049E+02</rscale>
<asrwt>0</asrwt>
<pdfrwt beam="1">  1        2 0.41413646E+00 0.25812816E+02</pdfrwt>
<pdfrwt beam="2">  1        2 0.23905857E+00 0.83212782E+02</pdfrwt>
<totfact> 0.98597778E+00</totfact>
</mgrwt>
</event>
<event>
13    1  0.1595792E-008  0.4754935E+02  0.7546771E-02  0.1462157E+00
          2   -1    0    0  502    0  0.00000000000E+00  0.00000000000E+00  0.17450694244E+04  0.17450694244E+04  0.00000000000E+00 0. -1.
          2   -1    0    0  503    0 -0.00000000000E+00 -0.00000000000E+00 -0.28369792178E+04  0.28369792178E+04  0.00000000000E+00 0. -1.
         24    2    1    2    0    0  0.25220338859E+03 -0.35808117983E+03 -0.10114434509E+04  0.11054881020E+04  0.85190426693E+02 0.  0.
         25    2    1    2    0    0 -0.26525305648E+03  0.15184999632E+03 -0.23783971118E+03  0.40695300002E+03  0.12500164261E+03 0.  0.
         24    2    1    2    0    0 -0.34176772450E+02  0.24202530033E+03  0.18749840773E+03  0.31848596297E+03  0.80829189842E+02 0.  0.
        -11    1    5    5    0    0 -0.16886165813E+02  0.11284383059E+03  0.13802058773E+03  0.17907695367E+03  0.00000000000E+00 0.  1.
         12    1    5    5    0    0 -0.17290606636E+02  0.12918146974E+03  0.49477820003E+02  0.13940900930E+03  0.00000000000E+00 0. -1.
        -13    1    3    3    0    0  0.12499444369E+03 -0.14678362134E+03 -0.54079335228E+03  0.57413107590E+03  0.00000000000E+00 0.  1.
         14    1    3    3    0    0  0.12720894491E+03 -0.21129755848E+03 -0.47065009864E+03  0.53135702614E+03  0.00000000000E+00 0. -1.
          5    1    4    4  501    0 -0.97134997367E+02  0.82577253570E+02 -0.17060843910E+03  0.21303412875E+03  0.47000000000E+01 0. -1.
         -5    1    4    4    0  501 -0.16811805911E+03  0.69272742750E+02 -0.67231272077E+02  0.19391887127E+03  0.47000000000E+01 0. -1.
          1    1    1    2  502    0  0.44981339583E+02  0.11712302531E+02  0.13596943948E+04  0.13604886425E+04  0.00000000000E+00 0. -1.
          1    1    1    2  503    0  0.22451007543E+01 -0.47506419353E+02 -0.13898194338E+04  0.13906329347E+04  0.00000000000E+00 0. -1.
<mgrwt>
<rscale>  0 0.47012224E+02</rscale>
<asrwt>0</asrwt>
<pdfrwt beam="1">  1        2 0.25662786E+00 0.46481168E+02</pdfrwt>
<pdfrwt beam="2">  1        2 0.41720282E+00 0.47549347E+02</pdfrwt>
<totfact> 0.80442014E+00</totfact>
</mgrwt>
</event>
<event>
13    1  0.1595792E-008  0.2106236E+03  0.7546771E-02  0.1211717E+00
          2   -1    0    0  502    0  0.00000000000E+00  0.00000000000E+00  0.24438462136E+04  0.24438462136E+04  0.00000000000E+00 0. -1.
          2   -1    0    0  503    0 -0.00000000000E+00 -0.00000000000E+00 -0.34356732573E+04  0.34356732573E+04  0.00000000000E+00 0. -1.
         24    2    1    2    0    0  0.76087923064E+02  0.10276770026E+03 -0.33104236102E+03  0.36438414034E+03  0.82681223306E+02 0.  0.
         25    2    1    2    0    0 -0.41878575156E+02 -0.10824540135E+03 -0.19717427759E+03  0.26071778311E+03  0.12500073886E+03 0.  0.
         24    2    1    2    0    0  0.10554974951E+03 -0.12967494790E+03  0.49190313888E+03  0.52597268165E+03  0.81989158199E+02 0.  0.
        -13    1    5    5    0    0  0.88104569041E+01 -0.68977611318E+01  0.15346725651E+01  0.11294179004E+02  0.00000000000E+00 0.  1.
         14    1    5    5    0    0  0.96739292606E+02 -0.12277718677E+03  0.49036846632E+03  0.51467850264E+03  0.00000000000E+00 0. -1.
        -13    1    3    3    0    0  0.53369707233E+01 -0.11572046157E+02 -0.65632661335E+02  0.66858370774E+02  0.00000000000E+00 0.  1.
         14    1    3    3    0    0  0.70750952341E+02  0.11433974641E+03 -0.26540969969E+03  0.29752576956E+03  0.00000000000E+00 0. -1.
          5    1    4    4  501    0  0.31769710252E+02 -0.42388279230E+01 -0.84675534752E+02  0.90660456303E+02  0.47000000000E+01 0. -1.
         -5    1    4    4    0  501 -0.73648285408E+02 -0.10400657343E+03 -0.11249874284E+03  0.17005732680E+03  0.47000000000E+01 0. -1.
          1    1    1    2  502    0 -0.87206803984E+02  0.21389136336E+03  0.18786017115E+04  0.18927490411E+04  0.00000000000E+00 0. -1.
          1    1    1    2  503    0 -0.52552293433E+02 -0.78738714367E+02 -0.28341152555E+04  0.28356958247E+04  0.00000000000E+00 0. -1.
<mgrwt>
<rscale>  0 0.14120465E+03</rscale>
<asrwt>0</asrwt>
<pdfrwt beam="1">  1        2 0.35938915E+00 0.21062357E+03</pdfrwt>
<pdfrwt beam="2">  1        2 0.50524606E+00 0.94665351E+02</pdfrwt>
<totfact> 0.13275523E+00</totfact>
</mgrwt>
</event>
<event>
13    1  0.1595792E-008  0.1033074E+03  0.7546771E-02  0.1443132E+00
          2   -1    0    0  503    0  0.00000000000E+00  0.00000000000E+00  0.37828039763E+04  0.37828039763E+04  0.00000000000E+00 0. -1.
          2   -1    0    0  502    0 -0.00000000000E+00 -0.00000000000E+00 -0.14390807465E+03  0.14390807465E+03  0.00000000000E+00 0. -1.
         24    2    1    2    0    0 -0.36925219420E+02  0.14464769115E+02  0.15298407538E+03  0.17742122100E+03  0.80631637499E+02 0.  0.
         25    2    1    2    0    0  0.17900023638E+03 -0.11361890092E+02  0.15366154875E+04  0.15520893791E+04  0.12499642846E+03 0.  0.
         24    2    1    2    0    0 -0.11587198472E+03 -0.89573637761E+02  0.10890540528E+04  0.11017844839E+04  0.80253134326E+02 0.  0.
        -11    1    5    5    0    0 -0.14443073843E+02 -0.37575359007E+02  0.51207401990E+03  0.51365388331E+03  0.00000000000E+00 0.  1.
         12    1    5    5    0    0 -0.10142891088E+03 -0.51998278754E+02  0.57698003293E+03  0.58813060059E+03  0.00000000000E+00 0. -1.
        -13    1    3    3    0    0 -0.39034879426E+02  0.17474323180E+02  0.16207116069E+03  0.16761901714E+03  0.00000000000E+00 0.  1.
         14    1    3    3    0    0  0.21096600062E+01 -0.30095540646E+01 -0.90870853065E+01  0.98022038531E+01  0.00000000000E+00 0. -1.
          5    1    4    4  501    0  0.54753359155E+02 -0.58781242105E+02  0.42632118907E+03  0.43384906478E+03  0.47000000000E+01 0. -1.
         -5    1    4    4    0  501  0.12424687722E+03  0.47419352013E+02  0.11102942984E+04  0.11182403143E+04  0.47000000000E+01 0. -1.
          1    1    1    2  502    0 -0.52608774110E+01  0.99377721641E+02 -0.96344999912E+02  0.13851341956E+03  0.00000000000E+00 0. -1.
          1    1    1    2  503    0 -0.20942154826E+02 -0.12906962904E+02  0.95658728590E+03  0.95690354743E+03  0.00000000000E+00 0. -1.
<mgrwt>
<rscale>  0 0.50412007E+02</rscale>
<asrwt>0</asrwt>
<pdfrwt beam="1">  1        2 0.55629464E+00 0.24600072E+02</pdfrwt>
<pdfrwt beam="2">  1        2 0.21162955E-01 0.10330744E+03</pdfrwt>
<totfact> 0.53974738E+01</totfact>
</mgrwt>
</event>
<event>
13    1  0.1595792E-008  0.8859458E+02  0.7546771E-02  0.1324812E+00
          2   -1    0    0  503    0  0.00000000000E+00  0.00000000000E+00  0.14919918797E+04  0.14919918797E+04  0.00000000000E+00 0. -1.
         -3   -1    0    0    0  501 -0.00000000000E+00 -0.00000000000E+00 -0.10102410065E+04  0.10102410065E+04  0.00000000000E+00 0.  1.
         24    2    1    2    0    0 -0.47909588163E+02 -0.46939005384E+02 -0.20362803414E+02  0.10680314089E+03  0.80583300236E+02 0.  0.
         25    2    1    2    0    0  0.33655965191E+02 -0.53737133240E+02 -0.99265408550E+02  0.17175287042E+03  0.12500009472E+03 0.  0.
         24    2    1    2    0    0  0.83520787557E+02  0.21596710491E+02  0.40081177892E+03  0.41768016915E+03  0.79777827239E+02 0.  0.
        -11    1    3    3    0    0  0.21398830768E+02 -0.21486107211E+02 -0.43732036940E+00  0.30327446487E+02  0.00000000000E+00 0.  1.
         12    1    3    3    0    0 -0.69308418931E+02 -0.25452898174E+02 -0.19925483045E+02  0.76475694405E+02  0.00000000000E+00 0. -1.
        -13    1    5    5    0    0 -0.13345043177E+02 -0.79847101120E+01  0.70228714289E+02  0.71929952618E+02  0.00000000000E+00 0.  1.
         14    1    5    5    0    0  0.96865830733E+02  0.29581420603E+02  0.33058306463E+03  0.34575021653E+03  0.00000000000E+00 0. -1.
          5    1    4    4  502    0  0.25777316642E+02 -0.91943505718E+02 -0.90176798004E+02  0.13142306949E+03  0.47000000000E+01 0. -1.
         -5    1    4    4    0  502  0.78786485491E+01  0.38206372479E+02 -0.90886105461E+01  0.40329800925E+02  0.47000000000E+01 0. -1.
          1    1    1    2  503    0 -0.14223292235E+03 -0.30796264852E+01  0.99443527550E+03  0.10045602050E+04  0.00000000000E+00 0. -1.
         -4    1    1    2    0  501  0.72965757764E+02  0.82159054618E+02 -0.79386796930E+03  0.80143650076E+03  0.00000000000E+00 0.  1.
<mgrwt>
<rscale>  0 0.81512980E+02</rscale>
<asrwt>0</asrwt>
<pdfrwt beam="1">  1        2 0.21941057E+00 0.88594578E+02</pdfrwt>
<pdfrwt beam="2">  1       -3 0.14856485E+00 0.74997434E+02</pdfrwt>
<totfact> 0.35727654E+00</totfact>
</mgrwt>
</event>
<event>
13    1  0.1595792E-008  0.3513058E+02  0.7546771E-02  0.1565196E+00
          2   -1    0    0  502    0  0.00000000000E+00  0.00000000000E+00  0.34053997959E+04  0.34053997959E+04  0.00000000000E+00 0. -1.
          2   -1    0    0  503    0 -0.00000000000E+00 -0.00000000000E+00 -0.14667316989E+04  0.14667316989E+04  0.00000000000E+00 0. -1.
         24    2    1    2    0    0  0.44205714940E+01  0.10072975135E+03  0.26515289318E+02  0.13343380432E+03  0.83279621209E+02 0.  0.
         25    2    1    2    0    0 -0.38763626107E+02 -0.24483430874E+02  0.28118662435E+03  0.31111685590E+03  0.12500289284E+03 0.  0.
         24    2    1    2    0    0  0.94930680621E+01 -0.39412046813E+02  0.25332404297E+03  0.26837822497E+03  0.78805920569E+02 0.  0.
        -11    1    5    5    0    0  0.30393802108E+02  0.50335491426E+01  0.46336511646E+02  0.55643437484E+02  0.00000000000E+00 0.  1.
         12    1    5    5    0    0 -0.20900734046E+02 -0.44445595956E+02  0.20698753132E+03  0.21273478749E+03  0.00000000000E+00 0. -1.
        -11    1    3    3    0    0 -0.35206810288E+02  0.65297185575E+02  0.34918664073E+00  0.74184660584E+02  0.00000000000E+00 0.  1.
         12    1    3    3    0    0  0.39627381782E+02  0.35432565776E+02  0.26166102677E+02  0.59249143738E+02  0.00000000000E+00 0. -1.
          5    1    4    4  501    0 -0.74881157453E+02  0.15160710194E+02  0.13299645184E+03  0.15345090771E+03  0.47000000000E+01 0.  1.
         -5    1    4    4    0  501  0.36117531345E+02 -0.39644141068E+02  0.14819017251E+03  0.15766594819E+03  0.47000000000E+01 0.  1.
          1    1    1    2  502    0  0.34439225895E+02 -0.69608512305E+01  0.27681339255E+04  0.27683569031E+04  0.00000000000E+00 0. -1.
          1    1    1    2  503    0 -0.95892393438E+01 -0.29873422432E+02 -0.13904917851E+04  0.13908457065E+04  0.00000000000E+00 0. -1.
<mgrwt>
<rscale>  0 0.33199593E+02</rscale>
<asrwt>0</asrwt>
<pdfrwt beam="1">  1        2 0.50079409E+00 0.35130575E+02</pdfrwt>
<pdfrwt beam="2">  1        2 0.21569584E+00 0.31374749E+02</pdfrwt>
<totfact> 0.59731735E+00</totfact>
</mgrwt>
</event>
<event>
13    1  0.1595792E-008  0.9114992E+02  0.7546771E-02  0.1307980E+00
          2   -1    0    0  502    0  0.00000000000E+00  0.00000000000E+00  0.25609902916E+04  0.25609902916E+04  0.00000000000E+00 0. -1.
          2   -1    0    0  503    0 -0.00000000000E+00 -0.00000000000E+00 -0.28584457090E+03  0.28584457090E+03  0.00000000000E+00 0. -1.
         24    2    1    2    0    0 -0.95902854298E+01 -0.66516468696E+02 -0.11389945986E+02  0.10428229052E+03  0.78921803478E+02 0.  0.
         25    2    1    2    0    0 -0.61726370369E+02 -0.31009763957E+02  0.27940642337E+03  0.31378998838E+03  0.12499782850E+03 0.  0.
         24    2    1    2    0    0 -0.31251378364E+02 -0.23643024171E+02  0.75041966325E+03  0.75579129235E+03  0.80963975617E+02 0.  0.
        -13    1    3    3    0    0 -0.26066038065E+02 -0.88586705599E+01 -0.30745942196E+02  0.41270175018E+02  0.00000000000E+00 0.  1.
         14    1    3    3    0    0  0.16475752635E+02 -0.57657798136E+02  0.19355996210E+02  0.63012115503E+02  0.00000000000E+00 0. -1.
        -13    1    5    5    0    0 -0.53194194930E+02  0.18593645893E+01  0.35842653092E+03  0.36235708587E+03  0.00000000000E+00 0.  1.
         14    1    5    5    0    0  0.21942816565E+02 -0.25502388760E+02  0.39199313233E+03  0.39343420648E+03  0.00000000000E+00 0. -1.
          5    1    4    4  501    0 -0.10955640643E+02 -0.25405437606E+02 -0.16300701754E+01  0.28110664357E+02  0.47000000000E+01 0. -1.
         -5    1    4    4    0  501 -0.50770729726E+02 -0.56043263511E+01  0.28103649354E+03  0.28567932402E+03  0.47000000000E+01 0. -1.
          1    1    1    2  502    0  0.82083037326E+02 -0.21275946674E+02  0.14385653347E+04  0.14410622863E+04  0.00000000000E+00 0. -1.
          1    1    1    2  503    0  0.20484996836E+02  0.14244520350E+03 -0.18185575459E+03  0.23190900494E+03  0.00000000000E+00 0. -1.
<mgrwt>
<rscale>  0 0.87915361E+02</rscale>
<asrwt>0</asrwt>
<pdfrwt beam="1">  1        2 0.37661621E+00 0.84795583E+02</pdfrwt>
<pdfrwt beam="2">  1        2 0.42035968E-01 0.91149921E+02</pdfrwt>
<totfact> 0.92632671E+01</totfact>
</mgrwt>
</event>
<event>
13    1  0.1595792E-008  0.1393351E+03  0.7546771E-02  0.1365499E+00
         -1   -1    0    0    0  501 -0.00000000000E+00  0.00000000000E+00  0.14571130428E+04  0.14571130428E+04  0.00000000000E+00 0.  1.
          2   -1    0    0  503    0  0.00000000000E+00 -0.00000000000E+00 -0.42683406510E+04  0.42683406510E+04  0.00000000000E+00 0. -1.
         24    2    1    2    0    0  0.93196910682E+02  0.37073771362E+03  0.19018670338E+03  0.43467898422E+03  0.81502887805E+02 0.  0.
         25    2    1    2    0    0  0.41958176920E+03 -0.37095751124E+03 -0.63938726121E+03  0.85912727750E+03  0.12500109181E+03 0.  0.
         24    2    1    2    0    0 -0.36055492990E+03 -0.55232127530E+02 -0.59521307385E+03  0.70528345927E+03  0.10047740670E+03 0.  0.
        -11    1    3    3    0    0  0.30305153119E+02  0.12336738532E+03  0.10739328852E+03  0.16634672370E+03  0.00000000000E+00 0.  1.
         12    1    3    3    0    0  0.62891757563E+02  0.24737032830E+03  0.82793414853E+02  0.26833226052E+03  0.00000000000E+00 0. -1.
        -13    1    5    5    0    0 -0.53366903462E+02 -0.43835319154E+02 -0.13837145434E+03  0.15464870179E+03  0.00000000000E+00 0.  1.
         14    1    5    5    0    0 -0.30718802644E+03 -0.11396808375E+02 -0.45684161951E+03  0.55063475748E+03  0.00000000000E+00 0. -1.
          5    1    4    4  502    0  0.20899878189E+03 -0.13812573637E+03 -0.20839071072E+03  0.32589567072E+03  0.47000000000E+01 0.  1.
         -5    1    4    4    0  502  0.21058298731E+03 -0.23283177487E+03 -0.43099655050E+03  0.53323160679E+03  0.47000000000E+01 0.  1.
          1    1    1    2  503    0 -0.15315830372E+02  0.29919232695E+02 -0.27415364197E+04  0.27417424525E+04  0.00000000000E+00 0. -1.
         -2    1    1    2    0  501 -0.13690791961E+03  0.25532692455E+02  0.97472244321E+03  0.98462152025E+03  0.00000000000E+00 0.  1.
<mgrwt>
<rscale>  0 0.68434383E+02</rscale>
<asrwt>0</asrwt>
<pdfrwt beam="2">  1        2 0.62769715E+00 0.33611533E+02</pdfrwt>
<pdfrwt beam="1">  1       -1 0.21428133E+00 0.13933506E+03</pdfrwt>
<totfact> 0.10274272E-01</totfact>
</mgrwt>
</event>
<event>
13    1  0.1595792E-008  0.1850695E+03  0.7546771E-02  0.1345127E+00
         -1   -1    0    0    0  501 -0.00000000000E+00  0.00000000000E+00  0.27443762026E+03  0.27443762026E+03  0.00000000000E+00 0.  1.
          2   -1    0    0  503    0  0.00000000000E+00 -0.00000000000E+00 -0.17525385170E+04  0.17525385170E+04  0.00000000000E+00 0. -1.
         24    2    1    2    0    0  0.20230742515E+02  0.57097296702E+02 -0.54785237534E+02  0.11502088045E+03  0.80987631492E+02 0.  0.
         25    2    1    2    0    0 -0.23602990064E+02 -0.96312054917E+02 -0.14411844293E+03  0.21500975723E+03  0.12500382814E+03 0.  0.
         24    2    1    2    0    0  0.92949113101E+02 -0.12315804479E+03 -0.43913047570E+03  0.47245301636E+03  0.81048358148E+02 0.  0.
        -11    1    3    3    0    0 -0.20245359673E+02 -0.40448345491E+01 -0.32282873799E+02  0.38319958449E+02  0.00000000000E+00 0.  1.
         12    1    3    3    0    0  0.40476102189E+02  0.61142131251E+02 -0.22502363736E+02  0.76700922002E+02  0.00000000000E+00 0. -1.
        -13    1    5    5    0    0 -0.85697385958E+01 -0.31545769723E+02 -0.13654734639E+03  0.14040567586E+03  0.00000000000E+00 0.  1.
         14    1    5    5    0    0  0.10151885170E+03 -0.91612275066E+02 -0.30258312931E+03  0.33204734050E+03  0.00000000000E+00 0. -1.
          5    1    4    4  502    0 -0.34152091241E+02 -0.59811849625E+02 -0.33374537948E+01  0.69116215822E+02  0.47000000000E+01 0.  1.
         -5    1    4    4    0  502  0.10549101177E+02 -0.36500205293E+02 -0.14078098914E+03  0.14589354141E+03  0.47000000000E+01 0.  1.
          1    1    1    2  503    0 -0.11953941179E+03  0.16488188531E+03 -0.10209820736E+04  0.10410956256E+04  0.00000000000E+00 0. -1.
         -2    1    1    2    0  501  0.29962546240E+02 -0.25090823088E+01  0.18091533300E+03  0.18339685762E+03  0.00000000000E+00 0.  1.
<mgrwt>
<rscale>  0 0.74595992E+02</rscale>
<asrwt>0</asrwt>
<pdfrwt beam="2">  1        2 0.25772625E+00 0.18506949E+03</pdfrwt>
<pdfrwt beam="1">  1       -1 0.40358473E-01 0.30067419E+02</pdfrwt>
<totfact> 0.78662122E+01</totfact>
</mgrwt>
</event>
<event>
13    1  0.1595792E-008  0.2126245E+03  0.7546771E-02  0.1450779E+00
          2   -1    0    0  503    0  0.00000000000E+00  0.00000000000E+00  0.14076397491E+04  0.14076397491E+04  0.00000000000E+00 0. -1.
          2   -1    0    0  502    0 -0.00000000000E+00 -0.00000000000E+00 -0.30537343495E+04  0.30537343495E+04  0.00000000000E+00 0. -1.
         24    2    1    2    0    0 -0.70694825958E+01  0.12354636823E+03 -0.12164345107E+03  0.19185667213E+03  0.81842353130E+02 0.  0.
         25    2    1    2    0    0  0.41696599252E+03 -0.16994978692E+03  0.10904682915E+03  0.47983987548E+03  0.12494609301E+03 0.  0.
         24    2    1    2    0    0 -0.23680066494E+03 -0.55561621125E+02  0.63126783714E+03  0.68184683339E+03  0.85172609067E+02 0.  0.
        -11    1    5    5    0    0 -0.16670435198E+03 -0.59709925890E+02  0.52853570740E+03  0.55740973280E+03  0.00000000000E+00 0.  1.
         12    1    5    5    0    0 -0.70096312956E+02  0.41483047650E+01  0.10273212974E+03  0.12443710059E+03  0.00000000000E+00 0. -1.
        -13    1    3    3    0    0 -0.16881128603E+02  0.12033033329E+03 -0.72187430780E+02  0.14133430855E+03  0.00000000000E+00 0.  1.
         14    1    3    3    0    0  0.98116460074E+01  0.32160349394E+01 -0.49456020292E+02  0.50522363575E+02  0.00000000000E+00 0. -1.
          5    1    4    4  501    0  0.14626260393E+03 -0.63983662439E+02 -0.21460156860E+02  0.16114988892E+03  0.47000000000E+01 0.  1.
         -5    1    4    4    0  501  0.27070338860E+03 -0.10596612448E+03  0.13050698601E+03  0.31868998656E+03  0.47000000000E+01 0.  1.
          1    1    1    2  502    0 -0.18408209287E+03  0.10458724331E+03 -0.26820501254E+04  0.26903935741E+04  0.00000000000E+00 0. -1.
          1    1    1    2  503    0  0.10986247884E+02 -0.26222034855E+01  0.41728430979E+03  0.41743714352E+03  0.00000000000E+00 0. -1.
<mgrwt>
<rscale>  0 0.49005731E+02</rscale>
<asrwt>0</asrwt>
<pdfrwt beam="1">  1        2 0.20700585E+00 0.11294848E+02</pdfrwt>
<pdfrwt beam="2">  1        2 0.44907858E+00 0.21262452E+03</pdfrwt>
<totfact> 0.79948162E+00</totfact>
</mgrwt>
</event>
<event>
13    1  0.1595792E-008  0.8297100E+02  0.7546771E-02  0.1440830E+00
          2   -1    0    0  502    0  0.00000000000E+00  0.00000000000E+00  0.13632665528E+04  0.13632665528E+04  0.00000000000E+00 0. -1.
          2   -1    0    0  503    0 -0.00000000000E+00 -0.00000000000E+00 -0.39394379403E+04  0.39394379403E+04  0.00000000000E+00 0. -1.
         24    2    1    2    0    0 -0.43193086320E+03  0.42431453577E+02 -0.12518460383E+04  0.13275776480E+04  0.83541659494E+02 0.  0.
         25    2    1    2    0    0  0.30088971309E+03  0.62547858697E+03 -0.51247191917E+03  0.87178590116E+03  0.12500042926E+03 0.  0.
         24    2    1    2    0    0  0.91895376429E+02 -0.62668720440E+03 -0.59783723432E+03  0.87625794154E+03  0.96109359560E+02 0.  0.
        -11    1    3    3    0    0 -0.27527407843E+03 -0.73156377719E+01 -0.84693897211E+03  0.89058124800E+03  0.00000000000E+00 0.  1.
         12    1    3    3    0    0 -0.15665678477E+03  0.49747091349E+02 -0.40490706624E+03  0.43699639998E+03  0.00000000000E+00 0. -1.
        -13    1    5    5    0    0  0.10451177621E+03 -0.60784820337E+03 -0.58562434405E+03  0.85050456909E+03  0.00000000000E+00 0.  1.
         14    1    5    5    0    0 -0.12616399783E+02 -0.18839001031E+02 -0.12212890273E+02  0.25753372442E+02  0.00000000000E+00 0. -1.
          5    1    4    4  501    0  0.26348401515E+03  0.49248167782E+03 -0.35305794302E+03  0.66078289200E+03  0.47000000000E+01 0.  1.
         -5    1    4    4    0  501  0.37405697939E+02  0.13299690915E+03 -0.15941397615E+03  0.21100300916E+03  0.47000000000E+01 0.  1.
          1    1    1    2  502    0  0.40659887164E+02 -0.72345484842E+02  0.10046233201E+04  0.10080451929E+04  0.00000000000E+00 0. -1.
          1    1    1    2  503    0 -0.15141134884E+01  0.31122648694E+02 -0.12186395157E+04  0.12190378095E+04  0.00000000000E+00 0. -1.
<mgrwt>
<rscale>  0 0.50846153E+02</rscale>
<asrwt>0</asrwt>
<pdfrwt beam="1">  1        2 0.20048038E+00 0.82970998E+02</pdfrwt>
<pdfrwt beam="2">  1        2 0.57932910E+00 0.31159458E+02</pdfrwt>
<totfact> 0.31042432E+00</totfact>
</mgrwt>
</event>
<event>
13    1  0.1595792E-008  0.1224338E+03  0.7546771E-02  0.1361136E+00
          2   -1    0    0  503    0  0.00000000000E+00  0.00000000000E+00  0.82816188981E+03  0.82816188981E+03  0.00000000000E+00 0. -1.
          2   -1    0    0  502    0 -0.00000000000E+00 -0.00000000000E+00 -0.34305878787E+04  0.34305878787E+04  0.00000000000E+00 0. -1.
         24    2    1    2    0    0  0.91759566937E+02  0.53534176104E+01 -0.43559452123E+03  0.45185521780E+03  0.77343866755E+02 0.  0.
         25    2    1    2    0    0 -0.54395046310E+02 -0.16493558155E+03 -0.90027431699E+03  0.92535539338E+03  0.12500476432E+03 0.  0.
         24    2    1    2    0    0 -0.18489757300E+01  0.24167489603E+02  0.12262867993E+03  0.15205447550E+03  0.86575308919E+02 0.  0.
        -11    1    3    3    0    0 -0.83701209480E+01 -0.94077861581E+01 -0.16749385347E+02  0.20954886652E+02  0.00000000000E+00 0.  1.
         12    1    3    3    0    0  0.10012968789E+03  0.14761203768E+02 -0.41884513588E+03  0.43090033115E+03  0.00000000000E+00 0. -1.
        -11    1    5    5    0    0  0.37403614788E+02  0.98846754486E+01  0.93336626170E+02  0.10103693875E+03  0.00000000000E+00 0.  1.
         12    1    5    5    0    0 -0.39252590518E+02  0.14282814155E+02  0.29292053758E+02  0.51017536748E+02  0.00000000000E+00 0. -1.
          5    1    4    4  501    0 -0.10117765774E+02 -0.15115566525E+03 -0.50252977050E+03  0.52488919264E+03  0.47000000000E+01 0. -1.
         -5    1    4    4    0  501 -0.44277280537E+02 -0.13779916298E+02 -0.39774454650E+03  0.40046620074E+03  0.47000000000E+01 0. -1.
          1    1    1    2  502    0 -0.38869856002E+02 -0.79402400436E+01 -0.20514706417E+04  0.20518542119E+04  0.00000000000E+00 0. -1.
          1    1    1    2  503    0  0.33543111048E+01  0.14335491438E+03  0.66228481106E+03  0.67763046998E+03  0.00000000000E+00 0. -1.
<mgrwt>
<rscale>  0 0.69694071E+02</rscale>
<asrwt>0</asrwt>
<pdfrwt beam="1">  1        2 0.12178851E+00 0.12243379E+03</pdfrwt>
<pdfrwt beam="2">  1        2 0.50449821E+00 0.39672574E+02</pdfrwt>
<totfact> 0.11457349E+01</totfact>
</mgrwt>
</event>
<event>
13    1  0.1595792E-008  0.8043047E+02  0.7546771E-02  0.1396496E+00
          2   -1    0    0  503    0  0.00000000000E+00  0.00000000000E+00  0.33681057379E+04  0.33681057379E+04  0.00000000000E+00 0. -1.
          2   -1    0    0  502    0 -0.00000000000E+00 -0.00000000000E+00 -0.15375972668E+04  0.15375972668E+04  0.00000000000E+00 0. -1.
         24    2    1    2    0    0 -0.34068947291E+02 -0.15536018626E+03 -0.10898584584E+03  0.20979475349E+03  0.82694881075E+02 0.  0.
         25    2    1    2    0    0  0.37275531059E+02  0.70130278192E+02  0.34069600369E+02  0.15196561878E+03  0.12500036195E+03 0.  0.
         24    2    1    2    0    0  0.86913260306E+02  0.67721292017E+02  0.55424127269E+03  0.57122121796E+03  0.83487743349E+02 0.  0.
        -11    1    5    5    0    0  0.70310640770E+02  0.20229563172E+01  0.26959046738E+03  0.27861568273E+03  0.00000000000E+00 0.  1.
         12    1    5    5    0    0  0.16602619536E+02  0.65698335699E+02  0.28465080531E+03  0.29260553523E+03  0.00000000000E+00 0. -1.
        -11    1    3    3    0    0 -0.40840356672E+02 -0.36547912821E+02 -0.59546249813E+02  0.80928613799E+02  0.00000000000E+00 0.  1.
         12    1    3    3    0    0  0.67714093811E+01 -0.11881227344E+03 -0.49439596027E+02  0.12886613969E+03  0.00000000000E+00 0. -1.
          5    1    4    4  501    0  0.28957679475E+02 -0.33118812845E+02  0.13474466661E+02  0.46249910450E+02  0.47000000000E+01 0.  1.
         -5    1    4    4    0  501  0.83178515842E+01  0.10324909104E+03  0.20595133708E+02  0.10571570833E+03  0.47000000000E+01 0.  1.
          1    1    1    2  502    0 -0.61147868967E+02  0.52250781796E+02 -0.13093426690E+04  0.13118107451E+04  0.00000000000E+00 0. -1.
          1    1    1    2  503    0 -0.28971975107E+02 -0.34742165745E+02  0.26605261128E+04  0.26609106694E+04  0.00000000000E+00 0. -1.
<mgrwt>
<rscale>  0 0.60319478E+02</rscale>
<asrwt>0</asrwt>
<pdfrwt beam="1">  1        2 0.49530967E+00 0.45237080E+02</pdfrwt>
<pdfrwt beam="2">  1        2 0.22611725E+00 0.80430465E+02</pdfrwt>
<totfact> 0.50975467E+00</totfact>
</mgrwt>
</event>
<event>
13    1  0.1595792E-008  0.1018343E+03  0.7546771E-02  0.1431277E+00
          2   -1    0    0  503    0  0.00000000000E+00  0.00000000000E+00  0.17451915991E+04  0.17451915991E+04  0.00000000000E+00 0. -1.
          2   -1    0    0  502    0 -0.00000000000E+00 -0.00000000000E+00 -0.14575572779E+04  0.14575572779E+04  0.00000000000E+00 0. -1.
         24    2    1    2    0    0  0.84016274552E+01  0.87808592751E+02 -0.11624632526E+04  0.11685139106E+04  0.79517352428E+02 0.  0.
         25    2    1    2    0    0 -0.73954463444E+01  0.31852906233E+03  0.22120487012E+03  0.40752499920E+03  0.12501829558E+03 0.  0.
         24    2    1    2    0    0 -0.65752153446E+02 -0.44345512146E+03  0.47986293982E+03  0.66165991783E+03  0.80929694256E+02 0.  0.
        -11    1    3    3    0    0 -0.11800971052E+02  0.27810637548E+01 -0.25919406118E+02  0.28614906026E+02  0.00000000000E+00 0.  1.
         12    1    3    3    0    0  0.20202598507E+02  0.85027528996E+02 -0.11365438465E+04  0.11398990046E+04  0.00000000000E+00 0. -1.
        -11    1    5    5    0    0 -0.63022094204E+02 -0.16167269034E+03  0.19318935792E+03  0.25967666659E+03  0.00000000000E+00 0.  1.
         12    1    5    5    0    0 -0.27300592426E+01 -0.28178243113E+03  0.28667358190E+03  0.40198325124E+03  0.00000000000E+00 0. -1.
          5    1    4    4  501    0 -0.61016915353E+02  0.22515770789E+03  0.16664810916E+03  0.28672764022E+03  0.47000000000E+01 0. -1.
         -5    1    4    4    0  501  0.53621469009E+02  0.93371354443E+02  0.54556760970E+02  0.12079735898E+03  0.47000000000E+01 0. -1.
          1    1    1    2  502    0 -0.23167034844E+02 -0.14399505454E+02 -0.10320323488E+03  0.10674720113E+03  0.00000000000E+00 0. -1.
          1    1    1    2  503    0  0.87913007180E+02  0.51516971833E+02  0.85223299873E+03  0.85830284827E+03  0.00000000000E+00 0. -1.
<mgrwt>
<rscale>  0 0.52704620E+02</rscale>
<asrwt>0</asrwt>
<pdfrwt beam="1">  1        2 0.25664582E+00 0.10183433E+03</pdfrwt>
<pdfrwt beam="2">  1        2 0.21434666E+00 0.27277413E+02</pdfrwt>
<totfact> 0.35252408E+01</totfact>
</mgrwt>
</event>
<event>
13    1  0.1595792E-008  0.8231626E+02  0.7546771E-02  0.1502528E+00
         -1   -1    0    0    0  501 -0.00000000000E+00  0.00000000000E+00  0.46600318550E+03  0.46600318550E+03  0.00000000000E+00 0.  1.
          2   -1    0    0  503    0  0.00000000000E+00 -0.00000000000E+00 -0.88032486534E+03  0.88032486534E+03  0.00000000000E+00 0. -1.
         24    2    1    2    0    0 -0.35218734787E+02 -0.19751154730E+03  0.26185084386E+03  0.33881445795E+03  0.77318832680E+02 0.  0.
         25    2    1    2    0    0  0.67039441611E+02  0.12914588230E+03  0.39405807854E+02  0.19583415555E+03  0.12500101257E+03 0.  0.
         24    2    1    2    0    0  0.39864065256E+02  0.10453701164E+03 -0.27039498835E+03  0.30405820104E+03  0.82588191593E+02 0.  0.
        -11    1    3    3    0    0 -0.36744929708E+02 -0.14009528879E+03  0.12850394652E+03  0.19362371774E+03  0.00000000000E+00 0.  1.
         12    1    3    3    0    0  0.15261949205E+01 -0.57416258514E+02  0.13334689733E+03  0.14519074021E+03  0.00000000000E+00 0. -1.
        -11    1    5    5    0    0  0.35290401002E+02  0.31357174211E+01 -0.48633093465E+02  0.60169950197E+02  0.00000000000E+00 0.  1.
         12    1    5    5    0    0  0.45736642531E+01  0.10140129422E+03 -0.22176189489E+03  0.24388825084E+03  0.00000000000E+00 0. -1.
          5    1    4    4  502    0 -0.81684043061E+01  0.10101488943E+03  0.52674549966E+02  0.11431285549E+03  0.47000000000E+01 0.  1.
         -5    1    4    4    0  502  0.75207845917E+02  0.28130992863E+02 -0.13268742112E+02  0.81521300064E+02  0.47000000000E+01 0.  1.
          1    1    1    2  503    0 -0.80377215311E+02 -0.17931097897E+02 -0.46912175098E+03  0.47629532672E+03  0.00000000000E+00 0. -1.
         -2    1    1    2    0  501  0.86924432326E+01 -0.18240248740E+02  0.23938407779E+02  0.31325909571E+02  0.00000000000E+00 0.  1.
<mgrwt>
<rscale>  0 0.40782930E+02</rscale>
<asrwt>0</asrwt>
<pdfrwt beam="2">  1        2 0.12945954E+00 0.82316264E+02</pdfrwt>
<pdfrwt beam="1">  1       -1 0.68529880E-01 0.20205575E+02</pdfrwt>
<totfact> 0.94656647E+01</totfact>
</mgrwt>
</event>
<event>
13    1  0.1595792E-008  0.5639395E+02  0.7546771E-02  0.1527988E+00
          2   -1    0    0  503    0  0.00000000000E+00  0.00000000000E+00  0.18488562919E+04  0.18488562919E+04  0.00000000000E+00 0. -1.
          2   -1    0    0  502    0 -0.00000000000E+00 -0.00000000000E+00 -0.16108965072E+04  0.16108965072E+04  0.00000000000E+00 0. -1.
         24    2    1    2    0    0 -0.28241655411E+02 -0.30149759049E+01 -0.22574167607E+03  0.24103827683E+03  0.79583072350E+02 0.  0.
         25    2    1    2    0    0  0.95268561821E+02  0.32956489095E+02  0.31965139413E+03  0.35771947937E+03  0.12499593235E+03 0.  0.
         24    2    1    2    0    0 -0.23492375024E+02 -0.40998451998E+02  0.52252128428E+03  0.53084054301E+03  0.80811043977E+02 0.  0.
        -11    1    3    3    0    0  0.13783252295E+02 -0.18182771452E+02 -0.19503946388E+02  0.30016581188E+02  0.00000000000E+00 0.  1.
         12    1    3    3    0    0 -0.42024907706E+02  0.15167795547E+02 -0.20623772968E+03  0.21102169565E+03  0.00000000000E+00 0. -1.
        -13    1    5    5    0    0  0.22878771558E+02 -0.25615096997E+02  0.10508842323E+03  0.11055834694E+03  0.00000000000E+00 0.  1.
         14    1    5    5    0    0 -0.46371146582E+02 -0.15383355000E+02  0.41743286105E+03  0.42028219607E+03  0.00000000000E+00 0. -1.
          5    1    4    4  501    0 -0.88466363545E+01  0.46120216604E+02  0.15829208450E+03  0.16517812013E+03  0.47000000000E+01 0. -1.
         -5    1    4    4    0  501  0.10411519818E+03 -0.13163727508E+02  0.16135930963E+03  0.19254135924E+03  0.47000000000E+01 0. -1.
          1    1    1    2  502    0 -0.43499909205E+02  0.35905895186E+02 -0.13535672194E+04  0.13547419285E+04  0.00000000000E+00 0. -1.
          1    1    1    2  503    0 -0.34622181132E-01 -0.24848956379E+02  0.97509600176E+03  0.97541257142E+03  0.00000000000E+00 0. -1.
<mgrwt>
<rscale>  0 0.37434373E+02</rscale>
<asrwt>0</asrwt>
<pdfrwt beam="1">  1        2 0.27189063E+00 0.24848980E+02</pdfrwt>
<pdfrwt beam="2">  1        2 0.23689655E+00 0.56393953E+02</pdfrwt>
<totfact> 0.28943875E+01</totfact>
</mgrwt>
</event>
<event>
13    1  0.1595792E-008  0.4429062E+02  0.7546771E-02  0.1535507E+00
          2   -1    0    0  502    0  0.00000000000E+00  0.00000000000E+00  0.13560275258E+04  0.13560275258E+04  0.00000000000E+00 0. -1.
          2   -1    0    0  503    0 -0.00000000000E+00 -0.00000000000E+00 -0.44778327429E+03  0.44778327429E+03  0.00000000000E+00 0. -1.
         24    2    1    2    0    0  0.69364162639E+02 -0.54075345036E+02 -0.15270320854E+03  0.19384396249E+03  0.80756930952E+02 0.  0.
         25    2    1    2    0    0 -0.28311917703E+02  0.36343176859E+02 -0.12474691635E+02  0.13380533868E+03  0.12500343811E+03 0.  0.
         24    2    1    2    0    0 -0.28513597007E+02 -0.58489828476E+01  0.70725282482E+02  0.11077051275E+03  0.80129926357E+02 0.  0.
        -11    1    5    5    0    0  0.12769491747E+02 -0.30851865208E+02  0.45130540279E+02  0.56139675561E+02  0.00000000000E+00 0.  1.
         12    1    5    5    0    0 -0.41283088754E+02  0.25002882360E+02  0.25594742203E+02  0.54630837188E+02  0.00000000000E+00 0. -1.
        -13    1    3    3    0    0  0.60036361277E+02  0.43472834985E+01 -0.79742113038E+02  0.99910300475E+02  0.00000000000E+00 0.  1.
         14    1    3    3    0    0  0.93278013619E+01 -0.58422628534E+02 -0.72961095502E+02  0.93933662017E+02  0.00000000000E+00 0. -1.
          5    1    4    4  501    0 -0.76300289782E+02  0.32791384065E+02 -0.18109028893E+02  0.85129524944E+02  0.47000000000E+01 0.  1.
         -5    1    4    4    0  501  0.47988372079E+02  0.35517927933E+01  0.56343372586E+01  0.48675813739E+02  0.47000000000E+01 0.  1.
          1    1    1    2  502    0 -0.41539134919E+02  0.15476318502E+02  0.11823757496E+04  0.11832064188E+04  0.00000000000E+00 0. -1.
          1    1    1    2  503    0  0.29000486990E+02  0.81048325222E+01 -0.17967888037E+03  0.18218456742E+03  0.00000000000E+00 0. -1.
<mgrwt>
<rscale>  0 0.36519411E+02</rscale>
<asrwt>0</asrwt>
<pdfrwt beam="1">  1        2 0.19941581E+00 0.44290619E+02</pdfrwt>
<pdfrwt beam="2">  1        2 0.65850482E-01 0.30111735E+02</pdfrwt>
<totfact> 0.23397209E+02</totfact>
</mgrwt>
</event>
<event>
13    1  0.1595792E-008  0.1449763E+03  0.7546771E-02  0.1236097E+00
          2   -1    0    0  503    0  0.00000000000E+00  0.00000000000E+00  0.19580765497E+04  0.19580765497E+04  0.00000000000E+00 0. -1.
          2   -1    0    0  502    0 -0.00000000000E+00 -0.00000000000E+00 -0.32277069749E+04  0.32277069749E+04  0.00000000000E+00 0. -1.
         24    2    1    2    0    0  0.85692101117E+02  0.12997019114E+03 -0.76582857147E+03  0.78560899961E+03  0.80328778184E+02 0.  0.
         25    2    1    2    0    0  0.15510672986E+03 -0.69736575717E+02 -0.27852655248E+02  0.21288965816E+03  0.12499979402E+03 0.  0.
         24    2    1    2    0    0 -0.16772068073E+02  0.55786810408E+02 -0.82279693367E+01  0.98694785697E+02  0.79243237954E+02 0.  0.
        -11    1    3    3    0    0  0.97260516904E+01  0.71160424308E+02 -0.44316160756E+03  0.44894388567E+03  0.00000000000E+00 0.  1.
         12    1    3    3    0    0  0.75966049427E+02  0.58809766828E+02 -0.32266696391E+03  0.33666511394E+03  0.00000000000E+00 0. -1.
        -11    1    5    5    0    0 -0.24119384396E+01  0.69705765089E+02 -0.23426040267E+02  0.73576426226E+02  0.00000000000E+00 0.  1.
         12    1    5    5    0    0 -0.14360129633E+02 -0.13918954681E+02  0.15198070930E+02  0.25118359471E+02  0.00000000000E+00 0. -1.
          5    1    4    4  501    0  0.37183019426E+02 -0.63404970406E+02 -0.54636023069E+02  0.91705791652E+02  0.47000000000E+01 0.  1.
         -5    1    4    4    0  501  0.11792371044E+03 -0.63316053111E+01  0.26783367821E+02  0.12118386650E+03  0.47000000000E+01 0.  1.
          1    1    1    2  502    0 -0.12444423065E+03 -0.70250073723E+02 -0.22742522939E+04  0.22787375750E+04  0.00000000000E+00 0. -1.
          1    1    1    2  503    0 -0.99582532252E+02 -0.45770352103E+02  0.18065310648E+04  0.18098525061E+04  0.00000000000E+00 0. -1.
<mgrwt>
<rscale>  0 0.12434461E+03</rscale>
<asrwt>0</asrwt>
<pdfrwt beam="1">  1        2 0.28795244E+00 0.10664902E+03</pdfrwt>
<pdfrwt beam="2">  1        2 0.47466278E+00 0.14497632E+03</pdfrwt>
<totfact> 0.30425299E+00</totfact>
</mgrwt>
</event>
<event>
13    1  0.1595792E-008  0.5741359E+02  0.7546771E-02  0.1556072E+00
          2   -1    0    0  502    0  0.00000000000E+00  0.00000000000E+00  0.44670778317E+04  0.44670778317E+04  0.00000000000E+00 0. -1.
          2   -1    0    0  503    0 -0.00000000000E+00 -0.00000000000E+00 -0.20789357730E+04  0.20789357730E+04  0.00000000000E+00 0. -1.
         24    2    1    2    0    0  0.33484517667E+03  0.10169837892E+03 -0.16379475889E+03  0.39568554455E+03  0.85290530029E+02 0.  0.
         25    2    1    2    0    0 -0.28828707594E+03  0.46794990938E+02  0.76340763938E+03  0.82687070755E+03  0.12499893523E+03 0.  0.
         24    2    1    2    0    0 -0.63465588750E+02 -0.91365928260E+02  0.12181788112E+04  0.12258658014E+04  0.80073299437E+02 0.  0.
        -11    1    3    3    0    0  0.30545338670E+03  0.11085634937E+03 -0.13004389213E+03  0.35000330787E+03  0.00000000000E+00 0.  1.
         12    1    3    3    0    0  0.29391789965E+02 -0.91579704539E+01 -0.33750866764E+02  0.45682236674E+02  0.00000000000E+00 0. -1.
        -13    1    5    5    0    0  0.11494415036E+02 -0.12644727816E+02  0.54384537427E+02  0.57006040292E+02  0.00000000000E+00 0.  1.
         14    1    5    5    0    0 -0.74960003785E+02 -0.78721200444E+02  0.11637942738E+04  0.11688597611E+04  0.00000000000E+00 0. -1.
          5    1    4    4  501    0  0.21598699413E+00 -0.20746681119E+02  0.55646404403E+02  0.59574186950E+02  0.47000000000E+01 0. -1.
         -5    1    4    4    0  501 -0.28850306293E+03  0.67541672057E+02  0.70776123498E+03  0.76729652060E+03  0.47000000000E+01 0. -1.
          1    1    1    2  502    0  0.20338880975E+02  0.18382333427E+00  0.23334593541E+04  0.23335479985E+04  0.00000000000E+00 0. -1.
          1    1    1    2  503    0 -0.34313929530E+01 -0.57311264930E+02 -0.17631089871E+04  0.17640435527E+04  0.00000000000E+00 0. -1.
<mgrwt>
<rscale>  0 0.34172736E+02</rscale>
<asrwt>0</asrwt>
<pdfrwt beam="1">  1        2 0.65692321E+00 0.20339712E+02</pdfrwt>
<pdfrwt beam="2">  1        2 0.30572585E+00 0.57413591E+02</pdfrwt>
<totfact> 0.71964524E-01</totfact>
</mgrwt>
</event>
<event>
13    1  0.1595792E-008  0.1045419E+03  0.7546771E-02  0.1376765E+00
          2   -1    0    0  502    0  0.00000000000E+00  0.00000000000E+00  0.53727122938E+04  0.53727122938E+04  0.00000000000E+00 0. -1.
          2   -1    0    0  503    0 -0.00000000000E+00 -0.00000000000E+00 -0.21578198142E+04  0.21578198142E+04  0.00000000000E+00 0. -1.
         24    2    1    2    0    0 -0.90915411317E+02  0.12236222746E+04 -0.16964982683E+03  0.12411996451E+04  0.79236433637E+02 0.  0.
         25    2    1    2    0    0  0.50041665295E+03 -0.10719071792E+04  0.10434893526E+04  0.15823703924E+04  0.12499680997E+03 0.  0.
         24    2    1    2    0    0 -0.38533094941E+03 -0.90911408053E+02  0.24491188409E+04  0.24825963456E+04  0.91414954132E+02 0.  0.
        -13    1    3    3    0    0 -0.60077195648E+02  0.73414581956E+03 -0.62985698576E+02  0.73928786818E+03  0.00000000000E+00 0.  1.
         14    1    3    3    0    0 -0.30838215670E+02  0.48947645503E+03 -0.10666412825E+03  0.50191177694E+03  0.00000000000E+00 0. -1.
        -13    1    5    5    0    0 -0.24926302681E+03 -0.43831224036E+02  0.17996535758E+04  0.18173624365E+04  0.00000000000E+00 0.  1.
         14    1    5    5    0    0 -0.13606792260E+03 -0.47080184017E+02  0.64946526508E+03  0.66523390911E+03  0.00000000000E+00 0. -1.
          5    1    4    4  501    0  0.34430765541E+03 -0.66928282817E+03  0.59190156316E+03  0.95752640493E+03  0.47000000000E+01 0.  1.
         -5    1    4    4    0  501  0.15610899754E+03 -0.40262435100E+03  0.45158778946E+03  0.62484398751E+03  0.47000000000E+01 0.  1.
          1    1    1    2  502    0 -0.51567920549E+02 -0.91057352399E+02  0.10552039036E+04  0.10603801063E+04  0.00000000000E+00 0. -1.
          1    1    1    2  503    0  0.27397628323E+02  0.30253665030E+02 -0.11632697906E+04  0.11639856185E+04  0.00000000000E+00 0. -1.
<mgrwt>
<rscale>  0 0.65321826E+02</rscale>
<asrwt>0</asrwt>
<pdfrwt beam="1">  1        2 0.79010475E+00 0.10454188E+03</pdfrwt>
<pdfrwt beam="2">  1        2 0.31732644E+00 0.40815613E+02</pdfrwt>
<totfact> 0.59900401E-02</totfact>
</mgrwt>
</event>
<event>
13    1  0.1595792E-008  0.1645459E+03  0.7546771E-02  0.1303878E+00
          2   -1    0    0  502    0  0.00000000000E+00  0.00000000000E+00  0.74874546334E+03  0.74874546334E+03  0.00000000000E+00 0. -1.
          2   -1    0    0  503    0 -0.00000000000E+00 -0.00000000000E+00 -0.12435203191E+04  0.12435203191E+04  0.00000000000E+00 0. -1.
         24    2    1    2    0    0 -0.84011170391E+02 -0.96556774412E+02 -0.60053954920E+02  0.16244005611E+03  0.79995042928E+02 0.  0.
         25    2    1    2    0    0  0.15175107706E+03  0.32377635541E+03 -0.73203891570E+03  0.82423613161E+03  0.12499883531E+03 0.  0.
         24    2    1    2    0    0 -0.14249175809E+03 -0.12822898242E+03  0.14281148989E+03  0.25245499313E+03  0.81190078568E+02 0.  0.
        -11    1    5    5    0    0 -0.34233550396E+02  0.67554242963E+01  0.19440771370E+02  0.39943902182E+02  0.00000000000E+00 0.  1.
         12    1    5    5    0    0 -0.10825820770E+03 -0.13498440671E+03  0.12337071852E+03  0.21251109095E+03  0.00000000000E+00 0. -1.
        -13    1    3    3    0    0 -0.35189060236E+02 -0.70006392275E+02  0.29750042601E+01  0.78409282423E+02  0.00000000000E+00 0.  1.
         14    1    3    3    0    0 -0.48822110156E+02 -0.26550382136E+02 -0.63028959180E+02  0.84030773690E+02  0.00000000000E+00 0. -1.
          5    1    4    4  501    0  0.82744803174E+02  0.27710824778E+03 -0.62360257591E+03  0.68741395543E+03  0.47000000000E+01 0.  1.
         -5    1    4    4    0  501  0.69006273888E+02  0.46668107632E+02 -0.10843633979E+03  0.13682217618E+03  0.47000000000E+01 0.  1.
          1    1    1    2  502    0  0.12186021377E+03 -0.11159429611E+03  0.43661831253E+03  0.46683910447E+03  0.00000000000E+00 0. -1.
          1    1    1    2  503    0 -0.47108362349E+02  0.12603697524E+02 -0.28211178753E+03  0.28629549710E+03  0.00000000000E+00 0. -1.
<mgrwt>
<rscale>  0 0.89577485E+02</rscale>
<asrwt>0</asrwt>
<pdfrwt beam="1">  1        2 0.11010963E+00 0.16454593E+03</pdfrwt>
<pdfrwt beam="2">  1        2 0.18287064E+00 0.48765264E+02</pdfrwt>
<totfact> 0.14620328E+02</totfact>
</mgrwt>
</event>
<event>
13    1  0.1595792E-008  0.1515229E+03  0.7546771E-02  0.1270000E+00
          2   -1    0    0  503    0  0.00000000000E+00  0.00000000000E+00  0.50342726219E+03  0.50342726219E+03  0.00000000000E+00 0. -1.
          2   -1    0    0  502    0 -0.00000000000E+00 -0.00000000000E+00 -0.19447968597E+04  0.19447968597E+04  0.00000000000E+00 0. -1.
         24    2    1    2    0    0  0.58815434817E+02  0.19577331102E+02 -0.68288774639E+03  0.69138349557E+03  0.88503878528E+02 0.  0.
         25    2    1    2    0    0 -0.65875831241E+02 -0.11977640849E+03  0.63495662752E+02  0.19581239825E+03  0.12499913179E+03 0.  0.
         24    2    1    2    0    0 -0.95544070189E+02 -0.29916026076E+02  0.65187423393E+02  0.14467329049E+03  0.81592419065E+02 0.  0.
        -13    1    3    3    0    0  0.26176271660E+02  0.51930588722E+02 -0.47050439866E+03  0.47408477343E+03  0.00000000000E+00 0.  1.
         14    1    3    3    0    0  0.32639163157E+02 -0.32353257620E+02 -0.21238334773E+03  0.21729872214E+03  0.00000000000E+00 0. -1.
        -13    1    5    5    0    0 -0.84770011448E+02  0.11048752030E+02  0.53053630362E+02  0.10061171630E+03  0.00000000000E+00 0.  1.
         14    1    5    5    0    0 -0.10774058741E+02 -0.40964778105E+02  0.12133793032E+02  0.44061574192E+02  0.00000000000E+00 0. -1.
          5    1    4    4  501    0 -0.72777342519E+02 -0.85847924231E+02  0.96066647468E+02  0.14804492033E+03  0.47000000000E+01 0. -1.
         -5    1    4    4    0  501  0.69015112782E+01 -0.33928484258E+02 -0.32570984716E+02  0.47767477925E+02  0.47000000000E+01 0. -1.
          1    1    1    2  502    0  0.15148933947E+03  0.76108690963E+02 -0.11403580349E+04  0.11528911486E+04  0.00000000000E+00 0. -1.
          1    1    1    2  503    0 -0.48884872853E+02  0.54006412500E+02  0.25319309765E+03  0.26346378894E+03  0.00000000000E+00 0. -1.
<mgrwt>
<rscale>  0 0.10506052E+03</rscale>
<asrwt>0</asrwt>
<pdfrwt beam="1">  1        2 0.74033420E-01 0.72845202E+02</pdfrwt>
<pdfrwt beam="2">  1        2 0.28599954E+00 0.15152286E+03</pdfrwt>
<totfact> 0.96086230E+01</totfact>
</mgrwt>
</event>
<event>
13    1  0.1595792E-008  0.3331626E+02  0.7546771E-02  0.1589872E+00
          2   -1    0    0  503    0  0.00000000000E+00  0.00000000000E+00  0.13940239308E+04  0.13940239308E+04  0.00000000000E+00 0. -1.
          2   -1    0    0  502    0 -0.00000000000E+00 -0.00000000000E+00 -0.23559538177E+04  0.23559538177E+04  0.00000000000E+00 0. -1.
         24    2    1    2    0    0  0.21814317453E+03  0.17632131132E+03 -0.68867247944E+03  0.74924720487E+03  0.91792922712E+02 0.  0.
         25    2    1    2    0    0 -0.71559014113E+03  0.22202894756E+03 -0.30224159539E+03  0.81752333402E+03  0.12501326347E+03 0.  0.
         24    2    1    2    0    0  0.52406751735E+03 -0.39033343612E+03 -0.86325722366E+01  0.65842376577E+03  0.80251977707E+02 0.  0.
        -11    1    5    5    0    0  0.29212127440E+03 -0.16772629563E+03 -0.77125367458E+01  0.33693683744E+03  0.00000000000E+00 0.  1.
         12    1    5    5    0    0  0.23194624295E+03 -0.22260714050E+03 -0.92003549080E+00  0.32148692833E+03  0.00000000000E+00 0. -1.
        -11    1    3    3    0    0  0.25694519601E+01  0.22290002451E+02 -0.11740251223E+03  0.11952738670E+03  0.00000000000E+00 0.  1.
         12    1    3    3    0    0  0.21557372257E+03  0.15403130887E+03 -0.57126996721E+03  0.62971981818E+03  0.00000000000E+00 0. -1.
          5    1    4    4  501    0 -0.24971689169E+03  0.28185195623E+02 -0.63288487474E+02  0.25919192483E+03  0.47000000000E+01 0.  1.
         -5    1    4    4    0  501 -0.46587324944E+03  0.19384375193E+03 -0.23895310791E+03  0.55833140919E+03  0.47000000000E+01 0.  1.
          1    1    1    2  502    0 -0.15893101421E+02  0.23529123991E+02 -0.74295673835E+03  0.74349910922E+03  0.00000000000E+00 0. -1.
          1    1    1    2  503    0 -0.10727449326E+02 -0.31545946740E+02  0.78057349851E+03  0.78128433461E+03  0.00000000000E+00 0. -1.
<mgrwt>
<rscale>  0 0.30756732E+02</rscale>
<asrwt>0</asrwt>
<pdfrwt beam="1">  1        2 0.20500352E+00 0.33316257E+02</pdfrwt>
<pdfrwt beam="2">  1        2 0.34646379E+00 0.28393843E+02</pdfrwt>
<totfact> 0.22263321E+01</totfact>
</mgrwt>
</event>
<event>
13    1  0.1595792E-008  0.8866793E+02  0.7546771E-02  0.1314493E+00
          2   -1    0    0  502    0  0.00000000000E+00  0.00000000000E+00  0.15604961905E+04  0.15604961905E+04  0.00000000000E+00 0. -1.
          2   -1    0    0  503    0 -0.00000000000E+00 -0.00000000000E+00 -0.13717806107E+04  0.13717806107E+04  0.00000000000E+00 0. -1.
         24    2    1    2    0    0 -0.69077551415E+02  0.65522086889E+01 -0.10612776337E+02  0.10665402263E+03  0.80298256357E+02 0.  0.
         25    2    1    2    0    0 -0.86105983262E+02  0.74740124380E+02  0.47931412610E+02  0.17584837658E+03  0.12499961874E+03 0.  0.
         24    2    1    2    0    0  0.31924146516E+02  0.80988546102E+01  0.62516833868E+03  0.63070166867E+03  0.76579374491E+02 0.  0.
        -11    1    3    3    0    0 -0.72907492594E+02 -0.21874440473E+02 -0.15157328695E+02  0.77612745316E+02  0.00000000000E+00 0.  1.
         12    1    3    3    0    0  0.38299411794E+01  0.28426649162E+02  0.45445523577E+01  0.29041277316E+02  0.00000000000E+00 0. -1.
        -11    1    5    5    0    0 -0.18918962120E+02 -0.41760757238E+01  0.58504277617E+02  0.61628866902E+02  0.00000000000E+00 0.  1.
         12    1    5    5    0    0  0.50843108636E+02  0.12274930334E+02  0.56666406107E+03  0.56907280177E+03  0.00000000000E+00 0. -1.
          5    1    4    4  501    0 -0.85595477175E+02  0.71394269890E+02 -0.15076392838E+02  0.11257493108E+03  0.47000000000E+01 0.  1.
         -5    1    4    4    0  501 -0.51050608700E+00  0.33458544896E+01  0.63007805448E+02  0.63273445505E+02  0.47000000000E+01 0.  1.
          1    1    1    2  502    0  0.36064350305E+02 -0.73839468603E+02  0.76888498401E+03  0.77326387677E+03  0.00000000000E+00 0. -1.
          1    1    1    2  503    0  0.87195037855E+02 -0.15551719076E+02 -0.12426563791E+04  0.12458088565E+04  0.00000000000E+00 0. -1.
<mgrwt>
<rscale>  0 0.85360299E+02</rscale>
<asrwt>0</asrwt>
<pdfrwt beam="1">  1        2 0.22948473E+00 0.82176058E+02</pdfrwt>
<pdfrwt beam="2">  1        2 0.20173244E+00 0.88667926E+02</pdfrwt>
<totfact> 0.44304870E+01</totfact>
</mgrwt>
</event>
<event>
13    1  0.1595792E-008  0.1206315E+03  0.7546771E-02  0.1268241E+00
          2   -1    0    0  503    0  0.00000000000E+00  0.00000000000E+00  0.14853050857E+04  0.14853050857E+04  0.00000000000E+00 0. -1.
          2   -1    0    0  502    0 -0.00000000000E+00 -0.00000000000E+00 -0.18877206925E+04  0.18877206925E+04  0.00000000000E+00 0. -1.
         24    2    1    2    0    0  0.12012577142E+03  0.50563291515E+02 -0.56730113950E+02  0.16172804330E+03  0.77141472323E+02 0.  0.
         25    2    1    2    0    0 -0.34254666870E+03  0.18224355681E+03 -0.60601080300E+03  0.73035841403E+03  0.12499354128E+03 0.  0.
         24    2    1    2    0    0  0.11067186716E+03 -0.13801680186E+03  0.62905017193E+03  0.65879788010E+03  0.83747407375E+02 0.  0.
        -11    1    5    5    0    0  0.17768401003E+02 -0.88270853272E+02  0.30825519056E+03  0.32113660974E+03  0.00000000000E+00 0.  1.
         12    1    5    5    0    0  0.92903466160E+02 -0.49745948591E+02  0.32079498137E+03  0.33766127036E+03  0.00000000000E+00 0. -1.
        -13    1    3    3    0    0  0.12840345030E+03  0.55308992946E+02 -0.59271200456E+02  0.15185389673E+03  0.00000000000E+00 0.  1.
         14    1    3    3    0    0 -0.82776788815E+01 -0.47457014307E+01  0.25410865057E+01  0.98741465638E+01  0.00000000000E+00 0. -1.
          5    1    4    4  501    0 -0.62044605596E+02  0.71350727363E+02 -0.79821236591E+02  0.12383044533E+03  0.47000000000E+01 0. -1.
         -5    1    4    4    0  501 -0.28050206311E+03  0.11089282945E+03 -0.52618956641E+03  0.60652796871E+03  0.47000000000E+01 0. -1.
          1    1    1    2  502    0  0.21795268928E+02 -0.11867769401E+03 -0.10891075858E+04  0.10957713093E+04  0.00000000000E+00 0. -1.
          1    1    1    2  503    0  0.89953761195E+02  0.23887647546E+02  0.72038272404E+03  0.72637013152E+03  0.00000000000E+00 0. -1.
<mgrwt>
<rscale>  0 0.10595918E+03</rscale>
<asrwt>0</asrwt>
<pdfrwt beam="1">  1        2 0.21842722E+00 0.93071472E+02</pdfrwt>
<pdfrwt beam="2">  1        2 0.27760598E+00 0.12063145E+03</pdfrwt>
<totfact> 0.25988287E+01</totfact>
</mgrwt>
</event>
<event>
13    1  0.1595792E-008  0.1338977E+03  0.7546771E-02  0.1360266E+00
          2   -1    0    0  503    0  0.00000000000E+00  0.00000000000E+00  0.36332188799E+04  0.36332188799E+04  0.00000000000E+00 0. -1.
         -1   -1    0    0    0  501 -0.00000000000E+00 -0.00000000000E+00 -0.12082901015E+04  0.12082901015E+04  0.00000000000E+00 0.  1.
         24    2    1    2    0    0  0.63110188550E+02  0.58030292936E+02  0.20499747486E+03  0.23625493948E+03  0.80262201147E+02 0.  0.
         25    2    1    2    0    0 -0.15572026583E+02  0.93878595318E+02  0.29808781521E+03  0.33695322635E+03  0.12500181000E+03 0.  0.
         24    2    1    2    0    0 -0.12153381170E+01 -0.65445436783E+02  0.24559031208E+03  0.26575573336E+03  0.77633280144E+02 0.  0.
        -13    1    3    3    0    0  0.80048665946E+02  0.60454858503E+02  0.17654865173E+03  0.20305665530E+03  0.00000000000E+00 0.  1.
         14    1    3    3    0    0 -0.16938477396E+02 -0.24245655668E+01  0.28448823129E+02  0.33198284174E+02  0.00000000000E+00 0. -1.
        -13    1    5    5    0    0  0.13274399383E+02 -0.77982037890E+02  0.21998595480E+03  0.23377602148E+03  0.00000000000E+00 0.  1.
         14    1    5    5    0    0 -0.14489737500E+02  0.12536601107E+02  0.25604357281E+02  0.31979711879E+02  0.00000000000E+00 0. -1.
          5    1    4    4  502    0  0.42334545360E+02  0.23354327369E+02  0.39222176971E+02  0.62434826052E+02  0.47000000000E+01 0.  1.
         -5    1    4    4    0  502 -0.57906571943E+02  0.70524267949E+02  0.25886563824E+03  0.27451840030E+03  0.47000000000E+01 0.  1.
          1    1    1    2  503    0  0.15771555780E+02  0.32963207457E+02  0.28353867287E+04  0.28356221921E+04  0.00000000000E+00 0. -1.
         -2    1    1    2    0  501 -0.62094379631E+02 -0.11942665893E+03 -0.11591335525E+04  0.11669228900E+04  0.00000000000E+00 0.  1.
<mgrwt>
<rscale>  0 0.69949167E+02</rscale>
<asrwt>0</asrwt>
<pdfrwt beam="1">  1        2 0.53429689E+00 0.36541962E+02</pdfrwt>
<pdfrwt beam="2">  1       -1 0.17768972E+00 0.13389774E+03</pdfrwt>
<totfact> 0.44806655E-01</totfact>
</mgrwt>
</event>
<event>
13    1  0.1595792E-008  0.4693694E+02  0.7546771E-02  0.1663734E+00
          2   -1    0    0  503    0  0.00000000000E+00  0.00000000000E+00  0.38793848475E+04  0.38793848475E+04  0.00000000000E+00 0. -1.
          2   -1    0    0  502    0 -0.00000000000E+00 -0.00000000000E+00 -0.27708050277E+04  0.27708050277E+04  0.00000000000E+00 0. -1.
         24    2    1    2    0    0 -0.10804890458E+04  0.28627900714E+03 -0.17104523086E+04  0.20449248359E+04  0.81598015979E+02 0.  0.
         25    2    1    2    0    0  0.49605136459E+03  0.29767427991E+03 -0.30307357952E+03  0.66494760235E+03  0.12499914412E+03 0.  0.
         24    2    1    2    0    0  0.61004608452E+03 -0.61138110250E+03  0.14185481851E+04  0.16632289683E+04  0.90047597160E+02 0.  0.
        -13    1    3    3    0    0 -0.97362516264E+03  0.26002357047E+03 -0.14940315101E+04  0.18021343922E+04  0.00000000000E+00 0.  1.
         14    1    3    3    0    0 -0.10686388316E+03  0.26255436666E+02 -0.21642079852E+03  0.24279044361E+03  0.00000000000E+00 0. -1.
        -13    1    5    5    0    0  0.51795681966E+03 -0.51680575481E+03  0.12587527811E+04  0.14559622314E+04  0.00000000000E+00 0.  1.
         14    1    5    5    0    0  0.92089264863E+02 -0.94575347695E+02  0.15979540402E+03  0.20726673693E+03  0.00000000000E+00 0. -1.
          5    1    4    4  501    0  0.41816337138E+03  0.19300340985E+03 -0.24962269756E+03  0.52387451027E+03  0.47000000000E+01 0. -1.
         -5    1    4    4    0  501  0.77887993212E+02  0.10467087005E+03 -0.53450881960E+02  0.14107309207E+03  0.47000000000E+01 0. -1.
          1    1    1    2  502    0  0.13086747866E+02  0.85961869233E+00 -0.28633862028E+03  0.28663880997E+03  0.00000000000E+00 0. -1.
          1    1    1    2  503    0 -0.38695151180E+02  0.26568196768E+02  0.19898961431E+04  0.19904496588E+04  0.00000000000E+00 0. -1.
<mgrwt>
<rscale>  0 0.24810796E+02</rscale>
<asrwt>0</asrwt>
<pdfrwt beam="1">  1        2 0.57049777E+00 0.46936937E+02</pdfrwt>
<pdfrwt beam="2">  1        2 0.40747133E+00 0.13114950E+02</pdfrwt>
<totfact> 0.86548330E-01</totfact>
</mgrwt>
</event>
<event>
13    1  0.1595792E-008  0.9153754E+02  0.7546771E-02  0.1343228E+00
          2   -1    0    0  502    0  0.00000000000E+00  0.00000000000E+00  0.40257269013E+03  0.40257269013E+03  0.00000000000E+00 0. -1.
          2   -1    0    0  503    0 -0.00000000000E+00 -0.00000000000E+00 -0.14463404038E+04  0.14463404038E+04  0.00000000000E+00 0. -1.
         24    2    1    2    0    0  0.60568771353E+01  0.14176842766E+01 -0.23744062798E+03  0.25704413103E+03  0.98259543519E+02 0.  0.
         25    2    1    2    0    0  0.10424561266E+02 -0.41054878874E+02 -0.31092787655E+03  0.33776549685E+03  0.12496084142E+03 0.  0.
         24    2    1    2    0    0  0.13762970740E+02 -0.54645881224E+02  0.10996345171E+03  0.14698286551E+03  0.79601572497E+02 0.  0.
        -11    1    5    5    0    0  0.41921129149E+02 -0.22509990700E+02  0.29800494054E+02  0.56144013005E+02  0.00000000000E+00 0.  1.
         12    1    5    5    0    0 -0.28158158409E+02 -0.32135890524E+02  0.80162957655E+02  0.90838852507E+02  0.00000000000E+00 0. -1.
        -13    1    3    3    0    0  0.12889909591E+02 -0.35657482651E+02 -0.36610277619E+02  0.52705960437E+02  0.00000000000E+00 0.  1.
         14    1    3    3    0    0 -0.68330324557E+01  0.37075166928E+02 -0.20083035036E+03  0.20433817060E+03  0.00000000000E+00 0. -1.
          5    1    4    4  501    0  0.25402758274E+02  0.37467547126E+02 -0.66715932890E+02  0.80760280565E+02  0.47000000000E+01 0.  1.
         -5    1    4    4    0  501 -0.14978197008E+02 -0.78522426000E+02 -0.24421194366E+03  0.25700521628E+03  0.47000000000E+01 0.  1.
          1    1    1    2  502    0 -0.91750522035E+02  0.88351887430E+02  0.23350167193E+03  0.26598354291E+03  0.00000000000E+00 0. -1.
          1    1    1    2  503    0  0.61506112893E+02  0.59311883908E+01 -0.83886433280E+03  0.84113705766E+03  0.00000000000E+00 0. -1.
<mgrwt>
<rscale>  0 0.75207948E+02</rscale>
<asrwt>0</asrwt>
<pdfrwt beam="1">  1        2 0.59201867E-01 0.91537537E+02</pdfrwt>
<pdfrwt beam="2">  1        2 0.21269712E+00 0.61791431E+02</pdfrwt>
<totfact> 0.22952050E+02</totfact>
</mgrwt>
</event>
<event>
13    1  0.1595792E-008  0.3330261E+02  0.7546771E-02  0.1622651E+00
          2   -1    0    0  502    0  0.00000000000E+00  0.00000000000E+00  0.15439611075E+04  0.15439611075E+04  0.00000000000E+00 0. -1.
          2   -1    0    0  503    0 -0.00000000000E+00 -0.00000000000E+00 -0.24286920586E+04  0.24286920586E+04  0.00000000000E+00 0. -1.
         24    2    1    2    0    0  0.39156459194E+02  0.21492227234E+02 -0.15093316057E+03  0.17719091666E+03  0.81367425046E+02 0.  0.
         25    2    1    2    0    0 -0.78884446970E+02  0.71790896513E+02 -0.26477761388E+03  0.31161953129E+03  0.12499143440E+03 0.  0.
         24    2    1    2    0    0 -0.17574746135E+01 -0.73253320970E+02  0.27316958594E+03  0.29312066793E+03  0.76999776200E+02 0.  0.
        -11    1    3    3    0    0 -0.24686050658E+02 -0.14814967964E+01 -0.46145173072E+02  0.52354301903E+02  0.00000000000E+00 0.  1.
         12    1    3    3    0    0  0.63842509852E+02  0.22973724031E+02 -0.10478798749E+03  0.12483661475E+03  0.00000000000E+00 0. -1.
        -11    1    5    5    0    0  0.32933695718E+02 -0.12712935209E+02  0.11369411705E+03  0.11904872652E+03  0.00000000000E+00 0.  1.
         12    1    5    5    0    0 -0.34691170331E+02 -0.60540385761E+02  0.15947546889E+03  0.17407194140E+03  0.00000000000E+00 0. -1.
          5    1    4    4  501    0  0.70954044558E+01  0.50145197798E-01  0.11017015361E+02  0.13921634473E+02  0.47000000000E+01 0.  1.
         -5    1    4    4    0  501 -0.85979851426E+02  0.71740751315E+02 -0.27579462924E+03  0.29769789681E+03  0.47000000000E+01 0.  1.
          1    1    1    2  502    0  0.22238419218E+02  0.71438744656E+01  0.12240137414E+04  0.12242365872E+04  0.00000000000E+00 0. -1.
          1    1    1    2  503    0  0.19247043171E+02 -0.27173677243E+02 -0.19662035040E+04  0.19664854631E+04  0.00000000000E+00 0. -1.
<mgrwt>
<rscale>  0 0.27890364E+02</rscale>
<asrwt>0</asrwt>
<pdfrwt beam="1">  1        2 0.22705311E+00 0.23357702E+02</pdfrwt>
<pdfrwt beam="2">  1        2 0.35716059E+00 0.33302608E+02</pdfrwt>
<totfact> 0.17687631E+01</totfact>
</mgrwt>
</event>
<event>
13    1  0.1595792E-008  0.4795651E+02  0.7546771E-02  0.1518472E+00
          2   -1    0    0  502    0  0.00000000000E+00  0.00000000000E+00  0.30230305911E+03  0.30230305911E+03  0.00000000000E+00 0. -1.
          2   -1    0    0  503    0 -0.00000000000E+00 -0.00000000000E+00 -0.20162554208E+04  0.20162554208E+04  0.00000000000E+00 0. -1.
         24    2    1    2    0    0 -0.15705048917E+02 -0.78316367982E+01 -0.16945175643E+03  0.18892241877E+03  0.81668840224E+02 0.  0.
         25    2    1    2    0    0  0.43925158155E+02 -0.58671000293E+02 -0.47453601009E+03  0.49616579656E+03  0.12499746800E+03 0.  0.
         24    2    1    2    0    0 -0.20492759158E+02 -0.35474299449E+00 -0.98382547553E+02  0.13922585981E+03  0.96356812715E+02 0.  0.
        -11    1    5    5    0    0 -0.53864705938E+02  0.21973084257E+02 -0.62376685111E+02  0.85294043303E+02  0.00000000000E+00 0.  1.
         12    1    5    5    0    0  0.33371946779E+02 -0.22327827252E+02 -0.36005862442E+02  0.53931816508E+02  0.00000000000E+00 0. -1.
        -13    1    3    3    0    0  0.17393298778E+02 -0.36057635851E+02 -0.81047680649E+02  0.90395832228E+02  0.00000000000E+00 0.  1.
         14    1    3    3    0    0 -0.33098347695E+02  0.28225999053E+02 -0.88404075776E+02  0.98526586547E+02  0.00000000000E+00 0. -1.
          5    1    4    4  501    0  0.24757929155E+02 -0.55334279813E+02 -0.76932575885E+02  0.98058904801E+02  0.47000000000E+01 0.  1.
         -5    1    4    4    0  501  0.19167229000E+02 -0.33367204805E+01 -0.39760343420E+03  0.39810689175E+03  0.47000000000E+01 0.  1.
          1    1    1    2  502    0  0.14949627764E+02  0.45527909006E+02  0.25893593033E+03  0.26333267531E+03  0.00000000000E+00 0. -1.
          1    1    1    2  503    0 -0.22676977843E+02  0.21329471080E+02 -0.12305179780E+04  0.12309117295E+04  0.00000000000E+00 0. -1.
<mgrwt>
<rscale>  0 0.38639030E+02</rscale>
<asrwt>0</asrwt>
<pdfrwt beam="1">  1        2 0.44456333E-01 0.47956514E+02</pdfrwt>
<pdfrwt beam="2">  1        2 0.29650814E+00 0.31131843E+02</pdfrwt>
<totfact> 0.17867296E+02</totfact>
</mgrwt>
</event>
<event>
13    1  0.1595792E-008  0.1327732E+03  0.7546771E-02  0.1347417E+00
          2   -1    0    0  503    0  0.00000000000E+00  0.00000000000E+00  0.88352605656E+03  0.88352605656E+03  0.00000000000E+00 0. -1.
         -3   -1    0    0    0  501 -0.00000000000E+00 -0.00000000000E+00 -0.92845851448E+03  0.92845851448E+03  0.00000000000E+00 0.  1.
         24    2    1    2    0    0  0.20667259074E+01 -0.75735947599E+01 -0.13480317354E+03  0.15694547105E+03  0.79989715544E+02 0.  0.
         25    2    1    2    0    0  0.14047545605E+03 -0.16266085938E+03 -0.29683704403E+03  0.38720723241E+03  0.12500120478E+03 0.  0.
         24    2    1    2    0    0 -0.15548927509E+03  0.77923403355E+02  0.19198367083E+03  0.27092101083E+03  0.79318930823E+02 0.  0.
        -11    1    5    5    0    0  0.78546672297E+01 -0.27414061525E+01  0.43119291756E+01  0.93703702274E+01  0.00000000000E+00 0.  1.
         12    1    5    5    0    0 -0.16334394232E+03  0.80664809508E+02  0.18767174165E+03  0.26155064061E+03  0.00000000000E+00 0. -1.
        -13    1    3    3    0    0 -0.37134727993E+02  0.16806837598E+01 -0.85843690839E+02  0.93546523067E+02  0.00000000000E+00 0.  1.
         14    1    3    3    0    0  0.39201453901E+02 -0.92542785197E+01 -0.48959482697E+02  0.63398947979E+02  0.00000000000E+00 0. -1.
          5    1    4    4  502    0  0.66722460019E+02 -0.10655568945E+02 -0.36841565941E+02  0.77102651067E+02  0.47000000000E+01 0.  1.
         -5    1    4    4    0  502  0.73752996027E+02 -0.15200529044E+03 -0.25999547809E+03  0.31010458134E+03  0.47000000000E+01 0.  1.
          1    1    1    2  503    0  0.26930892993E+02  0.13095335674E+03  0.58723144217E+03  0.60225810191E+03  0.00000000000E+00 0. -1.
         -4    1    1    2    0  501 -0.13983799853E+02 -0.38642305953E+02 -0.39250735336E+03  0.39465275485E+03  0.00000000000E+00 0.  1.
<mgrwt>
<rscale>  0 0.73866602E+02</rscale>
<asrwt>0</asrwt>
<pdfrwt beam="1">  1        2 0.12993030E+00 0.13277320E+03</pdfrwt>
<pdfrwt beam="2">  1       -3 0.13653802E+00 0.41094701E+02</pdfrwt>
<totfact> 0.90901387E+00</totfact>
</mgrwt>
</event>
<event>
13    1  0.1595792E-008  0.1939200E+03  0.7546771E-02  0.1267118E+00
          2   -1    0    0  503    0  0.00000000000E+00  0.00000000000E+00  0.33770834272E+04  0.33770834272E+04  0.00000000000E+00 0. -1.
          2   -1    0    0  502    0 -0.00000000000E+00 -0.00000000000E+00 -0.10442970824E+04  0.10442970824E+04  0.00000000000E+00 0. -1.
         24    2    1    2    0    0 -0.13498549361E+03 -0.14290848771E+03  0.30573880475E+03  0.37962948301E+03  0.10953724618E+03 0.  0.
         25    2    1    2    0    0 -0.12385444857E+03  0.22107310878E+03  0.24670712605E+03  0.37510321453E+03  0.12499908663E+03 0.  0.
         24    2    1    2    0    0  0.29239905557E+03 -0.27462116145E+03  0.21324906755E+04  0.21721100533E+04  0.98140779275E+02 0.  0.
        -11    1    3    3    0    0 -0.70119126468E+02 -0.11533030636E+03  0.11867289838E+03  0.17972486826E+03  0.00000000000E+00 0.  1.
         12    1    3    3    0    0 -0.64866367143E+02 -0.27578181344E+02  0.18706590637E+03  0.19990461475E+03  0.00000000000E+00 0. -1.
        -13    1    5    5    0    0  0.13243867821E+03 -0.17013323371E+03  0.93993423172E+03  0.96434520825E+03  0.00000000000E+00 0.  1.
         14    1    5    5    0    0  0.15996037736E+03 -0.10448792774E+03  0.11925564438E+04  0.12077648450E+04  0.00000000000E+00 0. -1.
          5    1    4    4  501    0 -0.44379775291E+02  0.14537067642E+03  0.20999342992E+03  0.25927114885E+03  0.47000000000E+01 0.  1.
         -5    1    4    4    0  501 -0.79474673278E+02  0.75702432360E+02  0.36713696131E+02  0.11583206569E+03  0.47000000000E+01 0.  1.
          1    1    1    2  502    0  0.53827798689E+02  0.22988336092E+02 -0.90585951299E+03  0.90774850746E+03  0.00000000000E+00 0. -1.
          1    1    1    2  503    0 -0.87386912081E+02  0.17346820429E+03  0.55370925147E+03  0.58678925132E+03  0.00000000000E+00 0. -1.
<mgrwt>
<rscale>  0 0.10653808E+03</rscale>
<asrwt>0</asrwt>
<pdfrwt beam="1">  1        2 0.49662991E+00 0.19392003E+03</pdfrwt>
<pdfrwt beam="2">  1        2 0.15357310E+00 0.58531150E+02</pdfrwt>
<totfact> 0.71193723E+00</totfact>
</mgrwt>
</event>
<event>
13    1  0.1595792E-008  0.9841947E+02  0.7546771E-02  0.1390464E+00
         -3   -1    0    0    0  501 -0.00000000000E+00  0.00000000000E+00  0.92510961468E+03  0.92510961468E+03  0.00000000000E+00 0.  1.
          2   -1    0    0  503    0  0.00000000000E+00 -0.00000000000E+00 -0.12615382649E+04  0.12615382649E+04  0.00000000000E+00 0. -1.
         24    2    1    2    0    0 -0.99922369767E+01  0.13435721537E+02 -0.81238558941E+02  0.11534680531E+03  0.80154966304E+02 0.  0.
         25    2    1    2    0    0  0.93946206309E+02  0.41312159142E+02 -0.43805594882E+03  0.46695462636E+03  0.12498409744E+03 0.  0.
         24    2    1    2    0    0 -0.53226770471E+02  0.40543733697E+02 -0.33914577714E+03  0.35474589686E+03  0.79673770765E+02 0.  0.
        -13    1    3    3    0    0 -0.90120744240E+01 -0.26972639242E+02 -0.47463172471E+01  0.28831723509E+02  0.00000000000E+00 0.  1.
         14    1    3    3    0    0 -0.98016255265E+00  0.40408360779E+02 -0.76492241694E+02  0.86515081800E+02  0.00000000000E+00 0. -1.
        -13    1    5    5    0    0  0.11445761002E+02  0.32324714205E+02 -0.71831711665E+02  0.79597031314E+02  0.00000000000E+00 0.  1.
         14    1    5    5    0    0 -0.64672531473E+02  0.82190194919E+01 -0.26731406548E+03  0.27514886555E+03  0.00000000000E+00 0. -1.
          5    1    4    4  502    0  0.39336865199E+02 -0.41684406629E+02 -0.21813215100E+03  0.22558524779E+03  0.47000000000E+01 0. -1.
         -5    1    4    4    0  502  0.54609341110E+02  0.82996565771E+02 -0.21992379782E+03  0.24136937857E+03  0.47000000000E+01 0. -1.
          1    1    1    2  503    0 -0.38688499086E+02  0.28744072183E+01 -0.36001149626E+03  0.36209576029E+03  0.00000000000E+00 0. -1.
         -4    1    1    2    0  501  0.79613002243E+01 -0.98166021594E+02  0.88202313095E+03  0.88750479076E+03  0.00000000000E+00 0.  1.
<mgrwt>
<rscale>  0 0.61791554E+02</rscale>
<asrwt>0</asrwt>
<pdfrwt beam="2">  1        2 0.18552033E+00 0.38795131E+02</pdfrwt>
<pdfrwt beam="1">  1       -3 0.13604553E+00 0.98419468E+02</pdfrwt>
<totfact> 0.61007196E+00</totfact>
</mgrwt>
</event>
<event>
13    1  0.1595792E-008  0.2206074E+03  0.7546771E-02  0.1185095E+00
          2   -1    0    0  502    0  0.00000000000E+00  0.00000000000E+00  0.36026937421E+04  0.36026937421E+04  0.00000000000E+00 0. -1.
          2   -1    0    0  503    0 -0.00000000000E+00 -0.00000000000E+00 -0.13880825381E+04  0.13880825381E+04  0.00000000000E+00 0. -1.
         24    2    1    2    0    0  0.10803119251E+03  0.51745152989E+02 -0.80066781048E+02  0.17432811007E+03  0.98139192577E+02 0.  0.
         25    2    1    2    0    0  0.29218734343E+03 -0.11975144770E+02  0.24529031564E+03  0.40163377007E+03  0.12500199422E+03 0.  0.
         24    2    1    2    0    0 -0.38326125548E+02 -0.13099965751E+03  0.13658914590E+03  0.20957221367E+03  0.81450081622E+02 0.  0.
        -11    1    5    5    0    0  0.15236536066E+02 -0.87983878400E+02  0.88467082354E+02  0.12569701488E+03  0.00000000000E+00 0.  1.
         12    1    5    5    0    0 -0.53562661614E+02 -0.43015779112E+02  0.48122063551E+02  0.83875198791E+02  0.00000000000E+00 0. -1.
        -11    1    3    3    0    0  0.14632084959E+02  0.26965675903E+02 -0.70913100530E+02  0.77265214774E+02  0.00000000000E+00 0.  1.
         12    1    3    3    0    0  0.93399107552E+02  0.24779477086E+02 -0.91536805172E+01  0.97062895295E+02  0.00000000000E+00 0. -1.
          5    1    4    4  501    0  0.96976394948E+02  0.17755699582E+02  0.15661948967E+03  0.18512547256E+03  0.47000000000E+01 0.  1.
         -5    1    4    4    0  501  0.19521094848E+03 -0.29730844352E+02  0.88670825974E+02  0.21650829751E+03  0.47000000000E+01 0.  1.
          1    1    1    2  502    0 -0.16983210040E+03  0.13951406672E+03  0.30464778010E+04  0.30543958665E+04  0.00000000000E+00 0. -1.
          1    1    1    2  503    0 -0.19206030999E+03 -0.48284417430E+02 -0.11336792775E+04  0.11508463198E+04  0.00000000000E+00 0. -1.
<mgrwt>
<rscale>  0 0.16323245E+03</rscale>
<asrwt>0</asrwt>
<pdfrwt beam="1">  1        2 0.52980790E+00 0.22060737E+03</pdfrwt>
<pdfrwt beam="2">  1        2 0.20412979E+00 0.12077943E+03</pdfrwt>
<totfact> 0.32166089E+00</totfact>
</mgrwt>
</event>
<event>
13    1  0.1595792E-008  0.5435768E+02  0.7546771E-02  0.1554274E+00
          2   -1    0    0  503    0  0.00000000000E+00  0.00000000000E+00  0.67023839198E+03  0.67023839198E+03  0.00000000000E+00 0. -1.
          2   -1    0    0  502    0 -0.00000000000E+00 -0.00000000000E+00 -0.17589062862E+04  0.17589062862E+04  0.00000000000E+00 0. -1.
         24    2    1    2    0    0  0.16047419500E+02  0.22204509555E+02 -0.51668238352E+03  0.52394769378E+03  0.82522363401E+02 0.  0.
         25    2    1    2    0    0  0.18156592644E+02  0.60504910653E+02 -0.65453432605E+02  0.15459635119E+03  0.12500149556E+03 0.  0.
         24    2    1    2    0    0  0.68628836903E+01 -0.31886837911E+02 -0.92662769663E+01  0.85589157049E+02  0.78586069447E+02 0.  0.
        -11    1    5    5    0    0 -0.26098039566E+02 -0.62169048897E+01 -0.28895629393E+02  0.39429874127E+02  0.00000000000E+00 0.  1.
         12    1    5    5    0    0  0.32960923256E+02 -0.25669933021E+02  0.19629352427E+02  0.46159282923E+02  0.00000000000E+00 0. -1.
        -13    1    3    3    0    0 -0.26669258558E+02  0.33402008279E+02 -0.24538922378E+03  0.24908395102E+03  0.00000000000E+00 0.  1.
         14    1    3    3    0    0  0.42716678058E+02 -0.11197498724E+02 -0.27129315974E+03  0.27486374276E+03  0.00000000000E+00 0. -1.
          5    1    4    4  501    0 -0.14155161021E+00 -0.38115412387E+02 -0.91673580652E+01  0.39483352849E+02  0.47000000000E+01 0. -1.
         -5    1    4    4    0  501  0.18298144255E+02  0.98620323040E+02 -0.56286074540E+02  0.11511299834E+03  0.47000000000E+01 0. -1.
          1    1    1    2  502    0 -0.21730967158E+02 -0.35713526341E-01 -0.10797645942E+04  0.10799832476E+04  0.00000000000E+00 0. -1.
          1    1    1    2  503    0 -0.19335928677E+02 -0.50786868771E+02  0.58249879312E+03  0.58502822852E+03  0.00000000000E+00 0. -1.
<mgrwt>
<rscale>  0 0.34369269E+02</rscale>
<asrwt>0</asrwt>
<pdfrwt beam="1">  1        2 0.98564471E-01 0.54357684E+02</pdfrwt>
<pdfrwt beam="2">  1        2 0.25866268E+00 0.21730997E+02</pdfrwt>
<totfact> 0.10559396E+02</totfact>
</mgrwt>
</event>
<event>
13    1  0.1595792E-008  0.4959198E+02  0.7546771E-02  0.1449781E+00
          2   -1    0    0  502    0  0.00000000000E+00  0.00000000000E+00  0.11611105134E+04  0.11611105134E+04  0.00000000000E+00 0. -1.
          2   -1    0    0  503    0 -0.00000000000E+00 -0.00000000000E+00 -0.63066891019E+03  0.63066891019E+03  0.00000000000E+00 0. -1.
         24    2    1    2    0    0 -0.29081330437E+02 -0.37609046428E+02  0.92773612584E+02  0.13101010463E+03  0.79350741462E+02 0.  0.
         25    2    1    2    0    0 -0.11159205837E+03 -0.61075703179E+02  0.56722550775E+02  0.18715138772E+03  0.12500066060E+03 0.  0.
         24    2    1    2    0    0  0.12638045526E+03  0.11717375663E+03  0.47834440408E+03  0.51441245594E+03  0.78135121431E+02 0.  0.
        -11    1    5    5    0    0  0.69488259807E+02  0.14551000368E+02  0.15666717882E+03  0.17200277551E+03  0.00000000000E+00 0.  1.
         12    1    5    5    0    0  0.56892195456E+02  0.10262275626E+03  0.32167722526E+03  0.34240968043E+03  0.00000000000E+00 0. -1.
        -13    1    3    3    0    0 -0.52413245436E+02 -0.42193023932E+02  0.57710120522E+02  0.88644557511E+02  0.00000000000E+00 0.  1.
         14    1    3    3    0    0  0.23331914999E+02  0.45839775042E+01  0.35063492061E+02  0.42365547120E+02  0.00000000000E+00 0. -1.
          5    1    4    4  501    0  0.14306210809E+02  0.14754929718E+02 -0.12624156375E+02  0.24573053186E+02  0.47000000000E+01 0.  1.
         -5    1    4    4    0  501 -0.12589826918E+03 -0.75830632897E+02  0.69346707149E+02  0.16257833454E+03  0.47000000000E+01 0.  1.
          1    1    1    2  502    0  0.43819419849E+02  0.21441238773E+02  0.42834862718E+03  0.43111763439E+03  0.00000000000E+00 0. -1.
          1    1    1    2  503    0 -0.29526486303E+02 -0.39930245794E+02 -0.52574759137E+03  0.52808784094E+03  0.00000000000E+00 0. -1.
<mgrwt>
<rscale>  0 0.49186278E+02</rscale>
<asrwt>0</asrwt>
<pdfrwt beam="1">  1        2 0.17075155E+00 0.48783894E+02</pdfrwt>
<pdfrwt beam="2">  1        2 0.92745428E-01 0.49591980E+02</pdfrwt>
<totfact> 0.20242957E+02</totfact>
</mgrwt>
</event>
<event>
13    1  0.1595792E-008  0.1027647E+03  0.7546771E-02  0.1418951E+00
          2   -1    0    0  503    0  0.00000000000E+00  0.00000000000E+00  0.28089426996E+04  0.28089426996E+04  0.00000000000E+00 0. -1.
          2   -1    0    0  502    0 -0.00000000000E+00 -0.00000000000E+00 -0.25803193753E+04  0.25803193753E+04  0.00000000000E+00 0. -1.
         24    2    1    2    0    0  0.67152988343E+02  0.34782513667E+02 -0.32407911330E+03  0.34227502664E+03  0.80034836693E+02 0.  0.
         25    2    1    2    0    0 -0.50005384720E+02 -0.13278182958E+03 -0.55915936111E+03  0.59026722370E+03  0.12499860595E+03 0.  0.
         24    2    1    2    0    0  0.64415707132E+02  0.22880998696E+02  0.29206666614E+02  0.11016491933E+03  0.81304099832E+02 0.  0.
        -11    1    5    5    0    0  0.28886672110E+01 -0.26703400431E+02  0.36001918946E+01  0.27099398048E+02  0.00000000000E+00 0.  1.
         12    1    5    5    0    0  0.61527039921E+02  0.49584399128E+02  0.25606474719E+02  0.83065521282E+02  0.00000000000E+00 0. -1.
        -13    1    3    3    0    0 -0.15878900102E+02 -0.45947744273E+01 -0.74589389896E+02  0.76399139429E+02  0.00000000000E+00 0.  1.
         14    1    3    3    0    0  0.83031888445E+02  0.39377288095E+02 -0.24948972340E+03  0.26587588721E+03  0.00000000000E+00 0. -1.
          5    1    4    4  501    0 -0.63563653147E+02 -0.23324713366E+02 -0.31622707632E+03  0.32342856097E+03  0.47000000000E+01 0. -1.
         -5    1    4    4    0  501  0.13558268427E+02 -0.10945711621E+03 -0.24293228479E+03  0.26683866272E+03  0.47000000000E+01 0. -1.
          1    1    1    2  502    0  0.97790705594E+01  0.28040994250E+02 -0.16308421642E+04  0.16311125320E+04  0.00000000000E+00 0. -1.
          1    1    1    2  503    0 -0.91342381314E+02  0.47077322963E+02  0.27134972963E+04  0.27154423732E+04  0.00000000000E+00 0. -1.
<mgrwt>
<rscale>  0 0.55243372E+02</rscale>
<asrwt>0</asrwt>
<pdfrwt beam="1">  1        2 0.41307981E+00 0.10276468E+03</pdfrwt>
<pdfrwt beam="2">  1        2 0.37945873E+00 0.29697266E+02</pdfrwt>
<totfact> 0.32122262E+00</totfact>
</mgrwt>
</event>
<event>
13    1  0.1595792E-008  0.6297745E+02  0.7546771E-02  0.1386023E+00
          2   -1    0    0  503    0  0.00000000000E+00  0.00000000000E+00  0.27371978059E+04  0.27371978059E+04  0.00000000000E+00 0. -1.
          2   -1    0    0  502    0 -0.00000000000E+00 -0.00000000000E+00 -0.26251315247E+04  0.26251315247E+04  0.00000000000E+00 0. -1.
         24    2    1    2    0    0  0.19332802331E+03 -0.12812125571E+03 -0.11729284468E+04  0.11982350769E+04  0.78837666019E+02 0.  0.
         25    2    1    2    0    0 -0.40023631617E+03 -0.98253828552E+02 -0.56111566135E+02  0.43429933281E+03  0.12499791604E+03 0.  0.
         24    2    1    2    0    0  0.19832997302E+03  0.24537715176E+03  0.35021587322E+03  0.47426286137E+03  0.52243459064E+02 0.  0.
        -13    1    5    5    0    0  0.94964218201E+02  0.10643353255E+03  0.19575426947E+03  0.24221072149E+03  0.00000000000E+00 0.  1.
         14    1    5    5    0    0  0.10336575482E+03  0.13894361921E+03  0.15446160374E+03  0.23205213987E+03  0.00000000000E+00 0. -1.
        -13    1    3    3    0    0  0.52022911234E+02 -0.54159994486E+02 -0.55490771688E+03  0.55996630483E+03  0.00000000000E+00 0.  1.
         14    1    3    3    0    0  0.14130511208E+03 -0.73961261228E+02 -0.61802072990E+03  0.63826877211E+03  0.00000000000E+00 0. -1.
          5    1    4    4  501    0 -0.17729709753E+03 -0.99895762044E+02 -0.56690157789E+02  0.21130378145E+03  0.47000000000E+01 0. -1.
         -5    1    4    4    0  501 -0.22293921864E+03  0.16419334920E+01  0.57859165321E+00  0.22299555135E+03  0.47000000000E+01 0. -1.
          1    1    1    2  502    0 -0.52458856999E+02 -0.34589359908E+02 -0.11309812519E+04  0.11327254511E+04  0.00000000000E+00 0. -1.
          1    1    1    2  503    0  0.61037176834E+02  0.15587292417E+02  0.21218716728E+04  0.21228066083E+04  0.00000000000E+00 0. -1.
<mgrwt>
<rscale>  0 0.62906654E+02</rscale>
<asrwt>0</asrwt>
<pdfrwt beam="1">  1        2 0.40252909E+00 0.62977446E+02</pdfrwt>
<pdfrwt beam="2">  1        2 0.38604875E+00 0.62835941E+02</pdfrwt>
<totfact> 0.31910454E+00</totfact>
</mgrwt>
</event>
<event>
13    1  0.1595792E-008  0.4188627E+02  0.7546771E-02  0.1603652E+00
          2   -1    0    0  503    0  0.00000000000E+00  0.00000000000E+00  0.26442305035E+04  0.26442305035E+04  0.00000000000E+00 0. -1.
          2   -1    0    0  502    0 -0.00000000000E+00 -0.00000000000E+00 -0.21804116969E+04  0.21804116969E+04  0.00000000000E+00 0. -1.
         24    2    1    2    0    0 -0.92435030823E+02  0.23884373706E+03 -0.74247335827E+02  0.27956506971E+03  0.83984496576E+02 0.  0.
         25    2    1    2    0    0  0.37078642256E+02 -0.24206975109E+03 -0.77020511637E+02  0.28553236474E+03  0.12499592790E+03 0.  0.
         24    2    1    2    0    0  0.79564152466E+00 -0.27475089472E+02  0.10619388139E+04  0.10667838704E+04  0.97766395560E+02 0.  0.
        -11    1    5    5    0    0 -0.18684723232E+02  0.26552476835E+02  0.65593622078E+03  0.65673927752E+03  0.00000000000E+00 0.  1.
         12    1    5    5    0    0  0.19480364757E+02 -0.54027566307E+02  0.40600259309E+03  0.41004459285E+03  0.00000000000E+00 0. -1.
        -11    1    3    3    0    0 -0.38341920282E+02  0.62977198052E+02 -0.59923471364E+02  0.95010803311E+02  0.00000000000E+00 0.  1.
         12    1    3    3    0    0 -0.54093110541E+02  0.17586653901E+03 -0.14323864463E+02  0.18455426640E+03  0.00000000000E+00 0. -1.
          5    1    4    4  501    0  0.71601228423E+02 -0.15330020290E+03 -0.85800408574E+02  0.18976693135E+03  0.47000000000E+01 0.  1.
         -5    1    4    4    0  501 -0.34522586167E+02 -0.88769548195E+02  0.87798969363E+01  0.95765433391E+02  0.47000000000E+01 0.  1.
          1    1    1    2  502    0  0.37101863741E+02  0.19431488847E+02 -0.18194868967E+04  0.18199688729E+04  0.00000000000E+00 0. -1.
          1    1    1    2  503    0  0.17458883301E+02  0.11269614655E+02  0.13726347369E+04  0.13727920228E+04  0.00000000000E+00 0. -1.
<mgrwt>
<rscale>  0 0.29502630E+02</rscale>
<asrwt>0</asrwt>
<pdfrwt beam="1">  1        2 0.38885743E+00 0.20780203E+02</pdfrwt>
<pdfrwt beam="2">  1        2 0.32064878E+00 0.41886270E+02</pdfrwt>
<totfact> 0.72824008E+00</totfact>
</mgrwt>
</event>
<event>
13    1  0.1595792E-008  0.1642618E+03  0.7546771E-02  0.1224559E+00
          2   -1    0    0  503    0  0.00000000000E+00  0.00000000000E+00  0.11849900677E+04  0.11849900677E+04  0.00000000000E+00 0. -1.
          2   -1    0    0  502    0 -0.00000000000E+00 -0.00000000000E+00 -0.13912651260E+04  0.13912651260E+04  0.00000000000E+00 0. -1.
         24    2    1    2    0    0 -0.93487642882E+02  0.45925383735E+02 -0.41768308923E+02  0.13793174734E+03  0.80196602498E+02 0.  0.
         25    2    1    2    0    0 -0.37725560413E+02 -0.11130790959E+03  0.90677877398E+02  0.19406556325E+03  0.12500518686E+03 0.  0.
         24    2    1    2    0    0 -0.25770154131E+02  0.92338319371E+01  0.27606879569E+03  0.28890589831E+03  0.80642877086E+02 0.  0.
        -11    1    5    5    0    0 -0.36872600858E+02 -0.23408680815E+02  0.94665922960E+02  0.10425541713E+03  0.00000000000E+00 0.  1.
         12    1    5    5    0    0  0.11102446727E+02  0.32642512752E+02  0.18140287273E+03  0.18465048117E+03  0.00000000000E+00 0. -1.
        -13    1    3    3    0    0 -0.47256167593E+02  0.47898379906E+02  0.10525480355E+02  0.68104228282E+02  0.00000000000E+00 0.  1.
         14    1    3    3    0    0 -0.46231475289E+02 -0.19729961708E+01 -0.52293789278E+02  0.69827519062E+02  0.00000000000E+00 0. -1.
          5    1    4    4  501    0 -0.35027694122E+02  0.13910695597E+02 -0.22354637382E+01  0.38046472972E+02  0.47000000000E+01 0. -1.
         -5    1    4    4    0  501 -0.26978662907E+01 -0.12521860519E+03  0.92913341136E+02  0.15601909027E+03  0.47000000000E+01 0. -1.
          1    1    1    2  502    0  0.15815837393E+03 -0.66899022102E+02 -0.12319861156E+04  0.12438968364E+04  0.00000000000E+00 0. -1.
          1    1    1    2  503    0 -0.11750165021E+01  0.12304771602E+03  0.70073269316E+03  0.71145514851E+03  0.00000000000E+00 0. -1.
<mgrwt>
<rscale>  0 0.13197152E+03</rscale>
<asrwt>0</asrwt>
<pdfrwt beam="1">  1        2 0.17426325E+00 0.10602879E+03</pdfrwt>
<pdfrwt beam="2">  1        2 0.20459781E+00 0.16426181E+03</pdfrwt>
<totfact> 0.63157144E+01</totfact>
</mgrwt>
</event>
<event>
13    1  0.1595792E-008  0.1805077E+03  0.7546771E-02  0.1367577E+00
          2   -1    0    0  503    0  0.00000000000E+00  0.00000000000E+00  0.69131850955E+03  0.69131850955E+03  0.00000000000E+00 0. -1.
         -3   -1    0    0    0  501 -0.00000000000E+00 -0.00000000000E+00 -0.25554117779E+04  0.25554117779E+04  0.00000000000E+00 0.  1.
         24    2    1    2    0    0 -0.38883400436E+03 -0.24947750244E+03 -0.59105442723E+03  0.75460965896E+03  0.81605724617E+02 0.  0.
         25    2    1    2    0    0  0.29011833306E+03 -0.29131300021E+02  0.12914233801E+03  0.34252701436E+03  0.12501892768E+03 0.  0.
         24    2    1    2    0    0  0.12602701538E+02  0.14462901498E+03  0.17345119376E+02  0.16154068711E+03  0.68688866376E+02 0.  0.
        -13    1    5    5    0    0  0.10128296191E+02  0.28553862750E+02  0.32526452473E+02  0.44450821951E+02  0.00000000000E+00 0.  1.
         14    1    5    5    0    0  0.24744053469E+01  0.11607515223E+03 -0.15181333096E+02  0.11708986515E+03  0.00000000000E+00 0. -1.
        -13    1    3    3    0    0 -0.25237920363E+03 -0.12088323157E+03 -0.32107864695E+03  0.42591022015E+03  0.00000000000E+00 0.  1.
         14    1    3    3    0    0 -0.13645480073E+03 -0.12859427087E+03 -0.26997578027E+03  0.32869943881E+03  0.00000000000E+00 0. -1.
          5    1    4    4  502    0  0.49682957971E+02 -0.27798213368E+02 -0.18849018060E+02  0.60154072688E+02  0.47000000000E+01 0.  1.
         -5    1    4    4    0  502  0.24043537509E+03 -0.13330866534E+01  0.14799135607E+03  0.28237294167E+03  0.47000000000E+01 0.  1.
          1    1    1    2  503    0  0.44162293058E+01 -0.25115001460E+02  0.27898693150E+03  0.28014991402E+03  0.00000000000E+00 0. -1.
         -4    1    1    2    0  501  0.81696740449E+02  0.15909478894E+03 -0.16985132300E+04  0.17079030130E+04  0.00000000000E+00 0.  1.
<mgrwt>
<rscale>  0 0.67845452E+02</rscale>
<asrwt>0</asrwt>
<pdfrwt beam="1">  1        2 0.10166449E+00 0.25500321E+02</pdfrwt>
<pdfrwt beam="2">  1       -3 0.37579584E+00 0.18050774E+03</pdfrwt>
<totfact> 0.52849048E-01</totfact>
</mgrwt>
</event>
<event>
13    1  0.1595792E-008  0.3645345E+03  0.7546771E-02  0.1171384E+00
          2   -1    0    0  503    0  0.00000000000E+00  0.00000000000E+00  0.18775459529E+04  0.18775459529E+04  0.00000000000E+00 0. -1.
          2   -1    0    0  502    0 -0.00000000000E+00 -0.00000000000E+00 -0.12645919793E+04  0.12645919793E+04  0.00000000000E+00 0. -1.
         24    2    1    2    0    0  0.58705795387E+02 -0.86075731217E+02 -0.22623933384E+03  0.26065162898E+03  0.76809072377E+02 0.  0.
         25    2    1    2    0    0  0.51415452552E+01 -0.19265760106E+03 -0.29956994320E+03  0.37750470599E+03  0.12499706175E+03 0.  0.
         24    2    1    2    0    0  0.11643431527E+02 -0.25007312267E+03  0.31663777753E+03  0.41107125703E+03  0.77768631332E+02 0.  0.
        -11    1    3    3    0    0 -0.89531358536E+01  0.43376765867E+01 -0.52522630192E+02  0.53456531520E+02  0.00000000000E+00 0.  1.
         12    1    3    3    0    0  0.67658931240E+02 -0.90413407803E+02 -0.17371670364E+03  0.20719509746E+03  0.00000000000E+00 0. -1.
        -13    1    5    5    0    0 -0.28373145710E+01 -0.36111263483E+02  0.99489069295E+02  0.10587798928E+03  0.00000000000E+00 0.  1.
         14    1    5    5    0    0  0.14480746098E+02 -0.21396185919E+03  0.21714870823E+03  0.30519326776E+03  0.00000000000E+00 0. -1.
          5    1    4    4  501    0  0.59677627188E+01  0.55630493972E+01  0.74626887461E+01  0.12014301219E+02  0.47000000000E+01 0.  1.
         -5    1    4    4    0  501 -0.82621746355E+00 -0.19822065046E+03 -0.30703263194E+03  0.36549040477E+03  0.47000000000E+01 0.  1.
          1    1    1    2  502    0 -0.12660201865E+02  0.84367300734E+02 -0.59773407722E+03  0.60379147825E+03  0.00000000000E+00 0. -1.
          1    1    1    2  503    0 -0.62830570303E+02  0.44443915421E+03  0.14198595503E+04  0.14891188619E+04  0.00000000000E+00 0. -1.
<mgrwt>
<rscale>  0 0.17634946E+03</rscale>
<asrwt>0</asrwt>
<pdfrwt beam="1">  1        2 0.27610970E+00 0.36453447E+03</pdfrwt>
<pdfrwt beam="2">  1        2 0.18596941E+00 0.85311911E+02</pdfrwt>
<totfact> 0.30920511E+01</totfact>
</mgrwt>
</event>
<event>
13    1  0.1595792E-008  0.4105215E+03  0.7546771E-02  0.1190185E+00
          2   -1    0    0  502    0  0.00000000000E+00  0.00000000000E+00  0.34487228538E+04  0.34487228538E+04  0.00000000000E+00 0. -1.
          2   -1    0    0  503    0 -0.00000000000E+00 -0.00000000000E+00 -0.12408475619E+04  0.12408475619E+04  0.00000000000E+00 0. -1.
         24    2    1    2    0    0 -0.87277003157E+02 -0.37266624670E+03 -0.47301979985E+02  0.39390183514E+03  0.80148435456E+02 0.  0.
         25    2    1    2    0    0  0.21828866673E+03 -0.51324290920E+01  0.99499069790E+02  0.27055686027E+03  0.12499866359E+03 0.  0.
         24    2    1    2    0    0  0.23403282041E+02  0.22036070492E+02 -0.11818411834E+02  0.87486980556E+02  0.80504626547E+02 0.  0.
        -13    1    3    3    0    0 -0.42247988319E+02 -0.50935321293E+02 -0.89711970903E+01  0.66781598135E+02  0.00000000000E+00 0.  1.
         14    1    3    3    0    0 -0.45029014838E+02 -0.32173092540E+03 -0.38330782895E+02  0.32712023700E+03  0.00000000000E+00 0. -1.
        -13    1    5    5    0    0  0.28242886684E+02 -0.24479440732E+02 -0.15744134234E+02  0.40555904990E+02  0.00000000000E+00 0.  1.
         14    1    5    5    0    0 -0.48396046421E+01  0.46515511223E+02  0.39257223993E+01  0.46931075566E+02  0.00000000000E+00 0. -1.
          5    1    4    4  501    0  0.80545054918E+02  0.40818997738E+02  0.85768002400E+02  0.12462719079E+03  0.47000000000E+01 0.  1.
         -5    1    4    4    0  501  0.13774361181E+03 -0.45951426830E+02  0.13731067390E+02  0.14592966948E+03  0.47000000000E+01 0.  1.
          1    1    1    2  502    0 -0.24551725656E+02 -0.56214082111E+02  0.29995234003E+04  0.30001505694E+04  0.00000000000E+00 0. -1.
          1    1    1    2  503    0 -0.12986321996E+03  0.41197668741E+03 -0.83202678637E+03  0.93747417037E+03  0.00000000000E+00 0. -1.
<mgrwt>
<rscale>  0 0.15868871E+03</rscale>
<asrwt>0</asrwt>
<pdfrwt beam="1">  1        2 0.50716512E+00 0.61341750E+02</pdfrwt>
<pdfrwt beam="2">  1        2 0.18247758E+00 0.41052148E+03</pdfrwt>
<totfact> 0.55329058E+00</totfact>
</mgrwt>
</event>
<event>
13    1  0.1595792E-008  0.7618600E+02  0.7546771E-02  0.1410663E+00
         -1   -1    0    0    0  501 -0.00000000000E+00  0.00000000000E+00  0.20668414140E+04  0.20668414140E+04  0.00000000000E+00 0.  1.
          2   -1    0    0  503    0  0.00000000000E+00 -0.00000000000E+00 -0.20765175800E+04  0.20765175800E+04  0.00000000000E+00 0. -1.
         24    2    1    2    0    0  0.35218010764E+02  0.20553620481E+03  0.20549247774E+03  0.30329710123E+03  0.79224575967E+02 0.  0.
         25    2    1    2    0    0  0.36244667984E+03 -0.70100184482E+02 -0.81585734777E+01  0.38983657972E+03  0.12499745988E+03 0.  0.
         24    2    1    2    0    0 -0.27922413200E+03 -0.14467720668E+03 -0.97063881843E+03  0.10255327542E+04  0.10334458876E+03 0.  0.
        -13    1    3    3    0    0  0.15072868022E+02  0.29676106456E+02  0.79030063608E+02  0.85753213344E+02  0.00000000000E+00 0.  1.
         14    1    3    3    0    0  0.20145142742E+02  0.17586009835E+03  0.12646241414E+03  0.21754388789E+03  0.00000000000E+00 0. -1.
        -13    1    5    5    0    0 -0.13853602009E+02 -0.31019760488E+02 -0.19448580650E+03  0.19743068850E+03  0.00000000000E+00 0.  1.
         14    1    5    5    0    0 -0.26537052999E+03 -0.11365744619E+03 -0.77615301193E+03  0.82810206568E+03  0.00000000000E+00 0. -1.
          5    1    4    4  502    0  0.29409789960E+03 -0.10538195763E+03 -0.12062849841E+02  0.31267640443E+03  0.47000000000E+01 0.  1.
         -5    1    4    4    0  502  0.68348780239E+02  0.35281773147E+02  0.39042763631E+01  0.77160175288E+02  0.47000000000E+01 0.  1.
          1    1    1    2  503    0 -0.42692378942E+02  0.13809325626E+01 -0.82907227693E+03  0.83017190181E+03  0.00000000000E+00 0. -1.
         -2    1    1    2    0  501 -0.75748179660E+02  0.78602537904E+01  0.15927010251E+04  0.15945206570E+04  0.00000000000E+00 0.  1.
<mgrwt>
<rscale>  0 0.57046145E+02</rscale>
<asrwt>0</asrwt>
<pdfrwt beam="2">  1        2 0.30537023E+00 0.42714707E+02</pdfrwt>
<pdfrwt beam="1">  1       -1 0.30394727E+00 0.76185999E+02</pdfrwt>
<totfact> 0.45776850E-01</totfact>
</mgrwt>
</event>
<event>
13    1  0.1595792E-008  0.1678145E+03  0.7546771E-02  0.1249916E+00
          2   -1    0    0  502    0  0.00000000000E+00  0.00000000000E+00  0.11787271887E+04  0.11787271887E+04  0.00000000000E+00 0. -1.
          2   -1    0    0  503    0 -0.00000000000E+00 -0.00000000000E+00 -0.26899231840E+04  0.26899231840E+04  0.00000000000E+00 0. -1.
         24    2    1    2    0    0  0.96561150142E+02  0.24321202769E+03 -0.35759620434E+03  0.45078084820E+03  0.82777905335E+02 0.  0.
         25    2    1    2    0    0 -0.32112528747E+03 -0.40832699510E+03  0.92263164029E+02  0.54220807178E+03  0.12499886595E+03 0.  0.
         24    2    1    2    0    0  0.10074003453E+03  0.59114719099E+02  0.34874940436E+02  0.13247197466E+03  0.51859984837E+02 0.  0.
        -11    1    3    3    0    0  0.10794864936E+03  0.18456587853E+03 -0.29395171313E+03  0.36349014301E+03  0.00000000000E+00 0.  1.
         12    1    3    3    0    0 -0.11387499219E+02  0.58646149159E+02 -0.63644491218E+02  0.87290705187E+02  0.00000000000E+00 0. -1.
        -13    1    5    5    0    0  0.85044241972E+02  0.52857079175E+02  0.76423441086E+01  0.10042310160E+03  0.00000000000E+00 0.  1.
         14    1    5    5    0    0  0.15695792563E+02  0.62576399238E+01  0.27232596327E+02  0.32048873058E+02  0.00000000000E+00 0. -1.
          5    1    4    4  501    0 -0.21353090500E+03 -0.28341730662E+03  0.34785025379E+01  0.35490140471E+03  0.47000000000E+01 0.  1.
         -5    1    4    4    0  501 -0.10759438246E+03 -0.12490968848E+03  0.88784661492E+02  0.18730666707E+03  0.47000000000E+01 0.  1.
          1    1    1    2  502    0  0.13859071363E+03  0.27245251343E+02  0.72359718908E+03  0.73725340398E+03  0.00000000000E+00 0. -1.
          1    1    1    2  503    0 -0.14766610839E+02  0.78754996971E+02 -0.20043350845E+04  0.20059360741E+04  0.00000000000E+00 0. -1.
<mgrwt>
<rscale>  0 0.11595923E+03</rscale>
<asrwt>0</asrwt>
<pdfrwt beam="1">  1        2 0.17334223E+00 0.16781451E+03</pdfrwt>
<pdfrwt beam="2">  1        2 0.39557694E+00 0.80127413E+02</pdfrwt>
<totfact> 0.15301483E+01</totfact>
</mgrwt>
</event>
<event>
13    1  0.1595792E-008  0.7801631E+02  0.7546771E-02  0.1393148E+00
          2   -1    0    0  503    0  0.00000000000E+00  0.00000000000E+00  0.21112178137E+04  0.21112178137E+04  0.00000000000E+00 0. -1.
          2   -1    0    0  502    0 -0.00000000000E+00 -0.00000000000E+00 -0.13384159465E+04  0.13384159465E+04  0.00000000000E+00 0. -1.
         24    2    1    2    0    0  0.46067827061E+02  0.19342194101E+03 -0.19275521884E+03  0.29166266110E+03  0.91532734776E+02 0.  0.
         25    2    1    2    0    0 -0.11660772615E+02 -0.29278984835E+03  0.68545706654E+02  0.32586046686E+03  0.12499864417E+03 0.  0.
         24    2    1    2    0    0 -0.66074695283E+01  0.32741960875E+02  0.72043939496E+03  0.72576203281E+03  0.81128982493E+02 0.  0.
        -11    1    5    5    0    0  0.14771806278E+02 -0.23298938419E+02  0.20658798481E+03  0.20842178931E+03  0.00000000000E+00 0.  1.
         12    1    5    5    0    0 -0.21379275806E+02  0.56040899295E+02  0.51385141015E+03  0.51734024350E+03  0.00000000000E+00 0. -1.
        -11    1    3    3    0    0  0.64066885537E+02  0.93509242439E+02 -0.73721868683E+02  0.13521633838E+03  0.00000000000E+00 0.  1.
         12    1    3    3    0    0 -0.17999058476E+02  0.99912698574E+02 -0.11903335015E+03  0.15644632272E+03  0.00000000000E+00 0. -1.
          5    1    4    4  501    0  0.29633034597E+02 -0.26808055614E+03  0.51735567542E+02  0.27467063962E+03  0.47000000000E+01 0.  1.
         -5    1    4    4    0  501 -0.41293807212E+02 -0.24709292206E+02  0.16810139112E+02  0.51189827235E+02  0.47000000000E+01 0.  1.
          1    1    1    2  502    0 -0.67298345059E+02  0.39530130875E+02 -0.96280594487E+03  0.96596427779E+03  0.00000000000E+00 0. -1.
          1    1    1    2  503    0  0.39498760142E+02  0.27095815588E+02  0.11393779293E+04  0.11403843216E+04  0.00000000000E+00 0. -1.
<mgrwt>
<rscale>  0 0.61130354E+02</rscale>
<asrwt>0</asrwt>
<pdfrwt beam="1">  1        2 0.31047321E+00 0.47899220E+02</pdfrwt>
<pdfrwt beam="2">  1        2 0.19682587E+00 0.78016306E+02</pdfrwt>
<totfact> 0.26949786E+01</totfact>
</mgrwt>
</event>
<event>
13    1  0.1595792E-008  0.5460669E+02  0.7546771E-02  0.1494146E+00
         -1   -1    0    0    0  501 -0.00000000000E+00  0.00000000000E+00  0.29769896600E+03  0.29769896600E+03  0.00000000000E+00 0.  1.
          2   -1    0    0  503    0  0.00000000000E+00 -0.00000000000E+00 -0.26524566948E+04  0.26524566948E+04  0.00000000000E+00 0. -1.
         24    2    1    2    0    0 -0.15465302402E+02  0.41431269007E+02  0.18552719851E+03  0.20713486144E+03  0.80800889898E+02 0.  0.
         25    2    1    2    0    0  0.60578970534E+01 -0.11988318798E+02 -0.35537723296E+03  0.37696080057E+03  0.12500419814E+03 0.  0.
         24    2    1    2    0    0 -0.23825237266E+02  0.43207961675E+02 -0.57754093734E+03  0.58703060843E+03  0.92826887538E+02 0.  0.
        -11    1    3    3    0    0 -0.35098149448E+02  0.51710267045E+02  0.16678992137E+03  0.17811431634E+03  0.00000000000E+00 0.  1.
         12    1    3    3    0    0  0.19632847046E+02 -0.10278998038E+02  0.18737277137E+02  0.29020545107E+02  0.00000000000E+00 0. -1.
        -13    1    5    5    0    0  0.24195406330E+02 -0.15852195390E+02 -0.14895272499E+03  0.15173537514E+03  0.00000000000E+00 0.  1.
         14    1    5    5    0    0 -0.48020643596E+02  0.59060157065E+02 -0.42858821235E+03  0.43529523329E+03  0.00000000000E+00 0. -1.
          5    1    4    4  502    0  0.56941752072E+02  0.19963820673E+02 -0.23031517847E+03  0.23813460206E+03  0.47000000000E+01 0. -1.
         -5    1    4    4    0  502 -0.50883855019E+02 -0.31952139471E+02 -0.12506205449E+03  0.13882619851E+03  0.47000000000E+01 0. -1.
          1    1    1    2  503    0  0.68042982291E+01 -0.54135792409E+02 -0.16897092028E+04  0.16905898890E+04  0.00000000000E+00 0. -1.
         -2    1    1    2    0  501  0.26428344386E+02 -0.18515119475E+02  0.82342445792E+02  0.88439501441E+02  0.00000000000E+00 0.  1.
<mgrwt>
<rscale>  0 0.41977200E+02</rscale>
<asrwt>0</asrwt>
<pdfrwt beam="2">  1        2 0.39006717E+00 0.54606691E+02</pdfrwt>
<pdfrwt beam="1">  1       -1 0.43779259E-01 0.32268670E+02</pdfrwt>
<totfact> 0.28700075E+01</totfact>
</mgrwt>
</event>
<event>
13    1  0.1595792E-008  0.1046128E+03  0.7546771E-02  0.1390098E+00
          2   -1    0    0  503    0  0.00000000000E+00  0.00000000000E+00  0.27775262365E+04  0.27775262365E+04  0.00000000000E+00 0. -1.
          2   -1    0    0  502    0 -0.00000000000E+00 -0.00000000000E+00 -0.66662364510E+03  0.66662364510E+03  0.00000000000E+00 0. -1.
         24    2    1    2    0    0  0.22069185917E+02 -0.17538578042E+02 -0.29971136092E+03  0.31167941661E+03  0.80762046687E+02 0.  0.
         25    2    1    2    0    0  0.84611925092E+02  0.17729903422E+03  0.11373554528E+03  0.25914076981E+03  0.12499615561E+03 0.  0.
         24    2    1    2    0    0  0.16947150073E+02 -0.93642714119E+02  0.11139285934E+04  0.11208527861E+04  0.80111753658E+02 0.  0.
        -13    1    5    5    0    0  0.20417576566E+02 -0.96004117745E+02  0.69431693929E+03  0.70122013679E+03  0.00000000000E+00 0.  1.
         14    1    5    5    0    0 -0.34704264928E+01  0.23614036255E+01  0.41961165410E+03  0.41963264928E+03  0.00000000000E+00 0. -1.
        -13    1    3    3    0    0 -0.14796897940E+02  0.25049149097E+02 -0.11001620791E+03  0.11379795280E+03  0.00000000000E+00 0.  1.
         14    1    3    3    0    0  0.36866083857E+02 -0.42587727139E+02 -0.18969515301E+03  0.19788146381E+03  0.00000000000E+00 0. -1.
          5    1    4    4  501    0  0.46702640328E+02  0.18536245204E+03  0.79021526982E+02  0.20689820436E+03  0.47000000000E+01 0.  1.
         -5    1    4    4    0  501  0.37909284764E+02 -0.80634178276E+01  0.34714018303E+02  0.52242565453E+02  0.47000000000E+01 0.  1.
          1    1    1    2  502    0 -0.29629197613E+02 -0.21496215717E+02 -0.28173381122E+03  0.28410194830E+03  0.00000000000E+00 0. -1.
          1    1    1    2  503    0 -0.93999063469E+02 -0.44621526338E+02  0.14646836249E+04  0.14683749608E+04  0.00000000000E+00 0. -1.
<mgrwt>
<rscale>  0 0.61882334E+02</rscale>
<asrwt>0</asrwt>
<pdfrwt beam="1">  1        2 0.40845974E+00 0.10461278E+03</pdfrwt>
<pdfrwt beam="2">  1        2 0.98032890E-01 0.36605691E+02</pdfrwt>
<totfact> 0.28927068E+01</totfact>
</mgrwt>
</event>
<event>
13    1  0.1595792E-008  0.7800684E+02  0.7546771E-02  0.1444406E+00
          2   -1    0    0  502    0  0.00000000000E+00  0.00000000000E+00  0.17916015182E+04  0.17916015182E+04  0.00000000000E+00 0. -1.
          2   -1    0    0  503    0 -0.00000000000E+00 -0.00000000000E+00 -0.75457165393E+03  0.75457165393E+03  0.00000000000E+00 0. -1.
         24    2    1    2    0    0  0.23282281669E+02  0.16223071105E+02 -0.14965601738E+03  0.17248387991E+03  0.80922880660E+02 0.  0.
         25    2    1    2    0    0  0.39645131878E+02 -0.21235482090E+02  0.15378045715E+03  0.20321136279E+03  0.12499498703E+03 0.  0.
         24    2    1    2    0    0  0.46229389544E+01 -0.92189753775E+00  0.14364808910E+03  0.16488459818E+03  0.80808017898E+02 0.  0.
        -11    1    3    3    0    0  0.31951994563E+02  0.29074534569E+02 -0.31874466036E+02  0.53686498322E+02  0.00000000000E+00 0.  1.
         12    1    3    3    0    0 -0.86697128941E+01 -0.12851463464E+02 -0.11778155134E+03  0.11879738159E+03  0.00000000000E+00 0. -1.
        -13    1    5    5    0    0 -0.86366272087E-01  0.36343046703E+02  0.10446342977E+03  0.11060484918E+03  0.00000000000E+00 0.  1.
         14    1    5    5    0    0  0.47093052265E+01 -0.37264944241E+02  0.39184659324E+02  0.54279748999E+02  0.00000000000E+00 0. -1.
          5    1    4    4  501    0 -0.44409315062E+02 -0.17295590715E+02  0.65753956848E+02  0.81344929550E+02  0.47000000000E+01 0. -1.
         -5    1    4    4    0  501  0.84054446940E+02 -0.39398913748E+01  0.88026500306E+02  0.12186643324E+03  0.47000000000E+01 0. -1.
          1    1    1    2  502    0 -0.68112220443E+02  0.38201144829E+02  0.14459042919E+04  0.14480116793E+04  0.00000000000E+00 0. -1.
          1    1    1    2  503    0  0.56186794142E+00 -0.32266836307E+02 -0.55664695650E+03  0.55758165196E+03  0.00000000000E+00 0. -1.
<mgrwt>
<rscale>  0 0.50173854E+02</rscale>
<asrwt>0</asrwt>
<pdfrwt beam="1">  1        2 0.26347081E+00 0.78006845E+02</pdfrwt>
<pdfrwt beam="2">  1        2 0.11096642E+00 0.32271728E+02</pdfrwt>
<totfact> 0.79603631E+01</totfact>
</mgrwt>
</event>
<event>
13    1  0.1595792E-008  0.7417220E+02  0.7546771E-02  0.1457897E+00
          2   -1    0    0  503    0  0.00000000000E+00  0.00000000000E+00  0.24384452956E+04  0.24384452956E+04  0.00000000000E+00 0. -1.
          2   -1    0    0  502    0 -0.00000000000E+00 -0.00000000000E+00 -0.12578119407E+04  0.12578119407E+04  0.00000000000E+00 0. -1.
         24    2    1    2    0    0  0.55974730308E+02  0.89723468969E+02 -0.91787110120E+02  0.16077837723E+03  0.79002162533E+02 0.  0.
         25    2    1    2    0    0 -0.14970464672E+03  0.42359428744E+02 -0.10220557156E+03  0.22422340984E+03  0.12499742481E+03 0.  0.
         24    2    1    2    0    0  0.44383335714E+02 -0.16804118561E+03  0.92925285582E+02  0.21257791926E+03  0.79665190073E+02 0.  0.
        -11    1    5    5    0    0  0.11790486783E+02 -0.50036634170E+01  0.33748487476E+02  0.36097266282E+02  0.00000000000E+00 0.  1.
         12    1    5    5    0    0  0.32592848931E+02 -0.16303752219E+03  0.59176798106E+02  0.17648065298E+03  0.00000000000E+00 0. -1.
        -13    1    3    3    0    0  0.26361705645E+02  0.27118318492E+01  0.53645324623E+01  0.27038338800E+02  0.00000000000E+00 0.  1.
         14    1    3    3    0    0  0.29613024663E+02  0.87011637120E+02 -0.97151642583E+02  0.13374003843E+03  0.00000000000E+00 0. -1.
          5    1    4    4  501    0 -0.14414085472E+03 -0.90333331276E+00 -0.42921578311E+02  0.15047177109E+03  0.47000000000E+01 0.  1.
         -5    1    4    4    0  501 -0.55637919961E+01  0.43262762057E+02 -0.59283993250E+02  0.73751638747E+02  0.47000000000E+01 0.  1.
          1    1    1    2  502    0 -0.23165454052E+02  0.20197332584E+02 -0.90759967515E+03  0.90811989342E+03  0.00000000000E+00 0. -1.
          1    1    1    2  503    0  0.72512034749E+02  0.15760955309E+02  0.21893004261E+04  0.21905576365E+04  0.00000000000E+00 0. -1.
<mgrwt>
<rscale>  0 0.47745140E+02</rscale>
<asrwt>0</asrwt>
<pdfrwt beam="1">  1        2 0.35859490E+00 0.74172198E+02</pdfrwt>
<pdfrwt beam="2">  1        2 0.18497234E+00 0.30733866E+02</pdfrwt>
<totfact> 0.20858704E+01</totfact>
</mgrwt>
</event>
<event>
13    1  0.1595792E-008  0.5192872E+02  0.7546771E-02  0.1450733E+00
          2   -1    0    0  503    0  0.00000000000E+00  0.00000000000E+00  0.14635948257E+04  0.14635948257E+04  0.00000000000E+00 0. -1.
         -1   -1    0    0    0  501 -0.00000000000E+00 -0.00000000000E+00 -0.33006363855E+03  0.33006363855E+03  0.00000000000E+00 0.  1.
         24    2    1    2    0    0  0.44978593915E+02  0.16980750199E+03 -0.17033721508E+03  0.25733559231E+03  0.79681733063E+02 0.  0.
         25    2    1    2    0    0 -0.84157226474E+02 -0.18024968451E+03  0.64061889941E+03  0.68234197721E+03  0.12500244817E+03 0.  0.
         24    2    1    2    0    0 -0.42486514111E+02 -0.16884661175E+02  0.10015693588E+03  0.13599016457E+03  0.79823037966E+02 0.  0.
        -11    1    5    5    0    0  0.17308185738E+02  0.15312564712E+02  0.17356366797E+02  0.28901408270E+02  0.00000000000E+00 0.  1.
         12    1    5    5    0    0 -0.59794699850E+02 -0.32197225887E+02  0.82800569080E+02  0.10708875630E+03  0.00000000000E+00 0. -1.
        -11    1    3    3    0    0  0.56348550729E+02  0.17103894252E+03 -0.16653884548E+03  0.24528486721E+03  0.00000000000E+00 0.  1.
         12    1    3    3    0    0 -0.11369956813E+02 -0.12314405336E+01 -0.37983696008E+01  0.12050725096E+02  0.00000000000E+00 0. -1.
          5    1    4    4  502    0 -0.11680622312E+03 -0.14084471239E+03  0.48069060637E+03  0.51436025879E+03  0.47000000000E+01 0.  1.
         -5    1    4    4    0  502  0.32648996646E+02 -0.39404972118E+02  0.15992829304E+03  0.16798171842E+03  0.47000000000E+01 0.  1.
          1    1    1    2  503    0  0.36400868151E+02  0.36887812672E+02  0.63247735571E+03  0.63459698976E+03  0.00000000000E+00 0. -1.
         -2    1    1    2    0  501  0.45264278519E+02 -0.95609689807E+01 -0.69384788727E+02  0.83393740439E+02  0.00000000000E+00 0.  1.
<mgrwt>
<rscale>  0 0.49014073E+02</rscale>
<asrwt>0</asrwt>
<pdfrwt beam="1">  1        2 0.21523453E+00 0.51928718E+02</pdfrwt>
<pdfrwt beam="2">  1       -1 0.48538771E-01 0.46263020E+02</pdfrwt>
<totfact> 0.88442441E+01</totfact>
</mgrwt>
</event>
<event>
13    1  0.1595792E-008  0.2813939E+03  0.7546771E-02  0.1150996E+00
          2   -1    0    0  502    0  0.00000000000E+00  0.00000000000E+00  0.34418283946E+04  0.34418283946E+04  0.00000000000E+00 0. -1.
          2   -1    0    0  503    0 -0.00000000000E+00 -0.00000000000E+00 -0.35636893793E+04  0.35636893793E+04  0.00000000000E+00 0. -1.
         24    2    1    2    0    0 -0.10713188476E+03  0.72998083561E+02 -0.48127158699E+03  0.50485892191E+03  0.80338220404E+02 0.  0.
         25    2    1    2    0    0 -0.65234406416E+02 -0.92389062650E+01 -0.57600553578E+02  0.15259477653E+03  0.12500582739E+03 0.  0.
         24    2    1    2    0    0 -0.22765015159E+03  0.95405189231E+02  0.65368033246E+03  0.70330651403E+03  0.80095779966E+02 0.  0.
        -11    1    5    5    0    0 -0.11270308480E+03  0.90323544475E+02  0.36734614851E+03  0.39471954706E+03  0.00000000000E+00 0.  1.
         12    1    5    5    0    0 -0.11494706679E+03  0.50816447561E+01  0.28633418396E+03  0.30858696696E+03  0.00000000000E+00 0. -1.
        -13    1    3    3    0    0 -0.41571865143E+02  0.16522522616E+02 -0.60276676211E+02  0.75063249464E+02  0.00000000000E+00 0.  1.
         14    1    3    3    0    0 -0.65560019621E+02  0.56475560945E+02 -0.42099491078E+03  0.42979567245E+03  0.00000000000E+00 0. -1.
          5    1    4    4  501    0 -0.59029072202E+02 -0.11166629654E+02  0.28121531802E+02  0.66498387452E+02  0.47000000000E+01 0.  1.
         -5    1    4    4    0  501 -0.62053342138E+01  0.19277233894E+01 -0.85722085379E+02  0.86096389076E+02  0.47000000000E+01 0.  1.
          1    1    1    2  502    0  0.27880842350E+03 -0.89004600898E+02  0.26944481088E+04  0.27102963984E+04  0.00000000000E+00 0. -1.
          1    1    1    2  503    0  0.12120801926E+03 -0.70159765629E+02 -0.29311172855E+04  0.29344611631E+04  0.00000000000E+00 0. -1.
<mgrwt>
<rscale>  0 0.19851696E+03</rscale>
<asrwt>0</asrwt>
<pdfrwt beam="1">  1        2 0.50615124E+00 0.28139386E+03</pdfrwt>
<pdfrwt beam="2">  1        2 0.52407197E+00 0.14004919E+03</pdfrwt>
<totfact> 0.28297441E-01</totfact>
</mgrwt>
</event>
<event>
13    1  0.1595792E-008  0.1601200E+03  0.7546771E-02  0.1367648E+00
          2   -1    0    0  502    0  0.00000000000E+00  0.00000000000E+00  0.14033478469E+04  0.14033478469E+04  0.00000000000E+00 0. -1.
          2   -1    0    0  503    0 -0.00000000000E+00 -0.00000000000E+00 -0.12328878013E+04  0.12328878013E+04  0.00000000000E+00 0. -1.
         24    2    1    2    0    0  0.51515165451E+02  0.77361316594E+02 -0.36738995215E+03  0.38732197421E+03  0.80027177798E+02 0.  0.
         25    2    1    2    0    0 -0.20488057878E+03 -0.69223009895E+02  0.45490466968E+03  0.51897266368E+03  0.12500596180E+03 0.  0.
         24    2    1    2    0    0  0.39822026717E+02 -0.26592885933E+02  0.27975658949E+03  0.29593222873E+03  0.83780422798E+02 0.  0.
        -11    1    3    3    0    0  0.29371014556E+02 -0.95232239522E+01 -0.12856646858E+03  0.13222210532E+03  0.00000000000E+00 0.  1.
         12    1    3    3    0    0  0.22144150895E+02  0.86884540546E+02 -0.23882348357E+03  0.25509986889E+03  0.00000000000E+00 0. -1.
        -13    1    5    5    0    0  0.27298407037E+02  0.14550643938E+02  0.22079843870E+03  0.22295487166E+03  0.00000000000E+00 0.  1.
         14    1    5    5    0    0  0.12523619680E+02 -0.41143529872E+02  0.58958150797E+02  0.72977357074E+02  0.00000000000E+00 0. -1.
          5    1    4    4  501    0 -0.17178567399E+03 -0.10269574471E+03  0.39309856884E+03  0.44114091694E+03  0.47000000000E+01 0.  1.
         -5    1    4    4    0  501 -0.33094904790E+02  0.33472734820E+02  0.61806100840E+02  0.77831746738E+02  0.47000000000E+01 0.  1.
          1    1    1    2  502    0 -0.10450149814E+02 -0.26762328089E+02  0.61291950706E+03  0.61359249504E+03  0.00000000000E+00 0. -1.
          1    1    1    2  503    0  0.12399353643E+03  0.45216907324E+02 -0.80973076850E+03  0.82041628656E+03  0.00000000000E+00 0. -1.
<mgrwt>
<rscale>  0 0.67825437E+02</rscale>
<asrwt>0</asrwt>
<pdfrwt beam="1">  1        2 0.20637468E+00 0.28730260E+02</pdfrwt>
<pdfrwt beam="2">  1        2 0.18130703E+00 0.16012002E+03</pdfrwt>
<totfact> 0.65214831E+01</totfact>
</mgrwt>
</event>
<event>
13    1  0.1595792E-008  0.1422247E+03  0.7546771E-02  0.1267300E+00
          2   -1    0    0  502    0  0.00000000000E+00  0.00000000000E+00  0.25292619673E+04  0.25292619673E+04  0.00000000000E+00 0. -1.
          4   -1    0    0  503    0 -0.00000000000E+00 -0.00000000000E+00 -0.82483711776E+03  0.82483711776E+03  0.00000000000E+00 0. -1.
         24    2    1    2    0    0  0.59478536741E+02 -0.35913130077E+02 -0.35917582035E+02  0.10675409157E+03  0.72656136166E+02 0.  0.
         25    2    1    2    0    0 -0.77797647204E+02  0.15365997546E+03  0.16516662791E+03  0.26941160341E+03  0.12505492836E+03 0.  0.
         24    2    1    2    0    0  0.25986507816E+02 -0.37080629657E+02  0.50814791821E+03  0.51635644484E+03  0.79745844196E+02 0.  0.
        -13    1    5    5    0    0 -0.28434589080E+02 -0.97896745050E+01  0.13835991154E+03  0.14159035526E+03  0.00000000000E+00 0.  1.
         14    1    5    5    0    0  0.54421096896E+02 -0.27290955152E+02  0.36978800667E+03  0.37476608958E+03  0.00000000000E+00 0. -1.
        -13    1    3    3    0    0  0.87489441490E+01 -0.44313076561E+02 -0.21145567047E+01  0.45217962449E+02  0.00000000000E+00 0.  1.
         14    1    3    3    0    0  0.50729592592E+02  0.83999464842E+01 -0.33803025330E+02  0.61536129119E+02  0.00000000000E+00 0. -1.
          5    1    4    4  501    0 -0.26717185614E+02 -0.18218844502E+02  0.17444295821E+02  0.37042242896E+02  0.47000000000E+01 0.  1.
         -5    1    4    4    0  501 -0.51080461590E+02  0.17187881996E+03  0.14772233209E+03  0.23236936051E+03  0.47000000000E+01 0.  1.
          1    1    1    2  502    0 -0.91843552987E+02  0.32839552523E+02  0.17557751788E+04  0.17584823437E+04  0.00000000000E+00 0. -1.
          3    1    1    2  503    0  0.84176155633E+02 -0.11350576825E+03 -0.68874729338E+03  0.70309460156E+03  0.00000000000E+00 0. -1.
<mgrwt>
<rscale>  0 0.10644445E+03</rscale>
<asrwt>0</asrwt>
<pdfrwt beam="1">  1        2 0.37195029E+00 0.79665606E+02</pdfrwt>
<pdfrwt beam="2">  1        4 0.12129958E+00 0.14222474E+03</pdfrwt>
<totfact> 0.14689013E+00</totfact>
</mgrwt>
</event>
<event>
13    1  0.1595792E-008  0.1513908E+03  0.7546771E-02  0.1270347E+00
          2   -1    0    0  503    0  0.00000000000E+00  0.00000000000E+00  0.14890297521E+04  0.14890297521E+04  0.00000000000E+00 0. -1.
          2   -1    0    0  502    0 -0.00000000000E+00 -0.00000000000E+00 -0.45740018515E+03  0.45740018515E+03  0.00000000000E+00 0. -1.
         24    2    1    2    0    0 -0.86740018104E+02 -0.72560413562E+01 -0.16146727779E+02  0.11947815731E+03  0.80236103968E+02 0.  0.
         25    2    1    2    0    0 -0.51868389263E+02 -0.15927116136E+03  0.32132079563E+03  0.38331406738E+03  0.12499995160E+03 0.  0.
         24    2    1    2    0    0 -0.47447306782E+02  0.13843165538E+02  0.37584455898E+03  0.38734550529E+03  0.79589746841E+02 0.  0.
        -11    1    5    5    0    0 -0.48597919362E+02 -0.20300482609E+02  0.15102391997E+03  0.15994402697E+03  0.00000000000E+00 0.  1.
         12    1    5    5    0    0  0.11506125795E+01  0.34143648147E+02  0.22482063901E+03  0.22740147832E+03  0.00000000000E+00 0. -1.
        -13    1    3    3    0    0 -0.48919493711E+02 -0.41106739186E+02 -0.23722703627E+02  0.68158987220E+02  0.00000000000E+00 0.  1.
         14    1    3    3    0    0 -0.37820524393E+02  0.33850697830E+02  0.75759758489E+01  0.51319170093E+02  0.00000000000E+00 0. -1.
          5    1    4    4  501    0 -0.42278600003E+02 -0.15189731162E+03  0.17180706481E+03  0.23323814185E+03  0.47000000000E+01 0.  1.
         -5    1    4    4    0  501 -0.95897892600E+01 -0.73738497339E+01  0.14951373082E+03  0.15007592552E+03  0.47000000000E+01 0.  1.
          1    1    1    2  502    0  0.13020498223E+03  0.19916904766E+03 -0.31050388246E+03  0.39119599687E+03  0.00000000000E+00 0. -1.
          1    1    1    2  503    0  0.55850731921E+02 -0.46485010489E+02  0.66111482259E+03  0.66509621041E+03  0.00000000000E+00 0. -1.
<mgrwt>
<rscale>  0 0.10488456E+03</rscale>
<asrwt>0</asrwt>
<pdfrwt beam="1">  1        2 0.21897496E+00 0.72664713E+02</pdfrwt>
<pdfrwt beam="2">  1        2 0.67264733E-01 0.15139083E+03</pdfrwt>
<totfact> 0.18794053E+02</totfact>
</mgrwt>
</event>
<event>
13    1  0.1595792E-008  0.1909049E+03  0.7546771E-02  0.1240037E+00
          2   -1    0    0  502    0  0.00000000000E+00  0.00000000000E+00  0.94650537917E+03  0.94650537917E+03  0.00000000000E+00 0. -1.
          2   -1    0    0  503    0 -0.00000000000E+00 -0.00000000000E+00 -0.45021561225E+04  0.45021561225E+04  0.00000000000E+00 0. -1.
         24    2    1    2    0    0  0.48141957325E+02  0.30634095212E+02 -0.10179838070E+04  0.10225954351E+04  0.78449326544E+02 0.  0.
         25    2    1    2    0    0 -0.18691113913E+03 -0.58230618000E+02 -0.10264473143E+04  0.10523981561E+04  0.12498484370E+03 0.  0.
         24    2    1    2    0    0 -0.13240007363E+03  0.25526284665E+02 -0.10158905592E+03  0.19459300427E+03  0.96771536755E+02 0.  0.
        -11    1    5    5    0    0 -0.10350238715E+03 -0.26101909157E+02 -0.67894126499E+02  0.12650559759E+03  0.00000000000E+00 0.  1.
         12    1    5    5    0    0 -0.28897686471E+02  0.51628193822E+02 -0.33694929416E+02  0.68087406685E+02  0.00000000000E+00 0. -1.
        -11    1    3    3    0    0  0.35262954621E+02 -0.16883236361E+02 -0.25033520352E+03  0.25336975699E+03  0.00000000000E+00 0.  1.
         12    1    3    3    0    0  0.12879002703E+02  0.47517331572E+02 -0.76764860348E+03  0.76922567815E+03  0.00000000000E+00 0. -1.
          5    1    4    4  501    0 -0.12907590649E+03  0.23183476841E+02 -0.53208726232E+03  0.54803011592E+03  0.47000000000E+01 0. -1.
         -5    1    4    4    0  501 -0.57835232643E+02 -0.81414094840E+02 -0.49436005199E+03  0.50436804020E+03  0.47000000000E+01 0. -1.
          1    1    1    2  502    0  0.19467574935E+03 -0.12152646730E+02  0.87330046211E+03  0.89481843484E+03  0.00000000000E+00 0. -1.
          1    1    1    2  503    0  0.76493506084E+02  0.14222884853E+02 -0.22829310282E+04  0.22842564713E+04  0.00000000000E+00 0. -1.
<mgrwt>
<rscale>  0 0.12187400E+03</rscale>
<asrwt>0</asrwt>
<pdfrwt beam="1">  1        2 0.13919197E+00 0.19090493E+03</pdfrwt>
<pdfrwt beam="2">  1        2 0.66208178E+00 0.77804543E+02</pdfrwt>
<totfact> 0.16166166E+00</totfact>
</mgrwt>
</event>
<event>
13    1  0.1595792E-008  0.7917240E+02  0.7546771E-02  0.1435622E+00
         -1   -1    0    0    0  501 -0.00000000000E+00  0.00000000000E+00  0.29154458050E+03  0.29154458050E+03  0.00000000000E+00 0.  1.
          2   -1    0    0  503    0  0.00000000000E+00 -0.00000000000E+00 -0.24827196809E+04  0.24827196809E+04  0.00000000000E+00 0. -1.
         24    2    1    2    0    0  0.40180103227E+02  0.18168902493E+02 -0.47041843316E+02  0.10307859777E+03  0.80422090134E+02 0.  0.
         25    2    1    2    0    0 -0.28505854265E+02 -0.99172780922E+02 -0.15861490082E+03  0.22678223187E+03  0.12499467879E+03 0.  0.
         24    2    1    2    0    0  0.47866582140E+02  0.39830298945E+02 -0.59748484639E+02  0.11770036952E+03  0.80036449008E+02 0.  0.
        -13    1    5    5    0    0  0.55073994325E+02 -0.59516645222E+00 -0.52328997523E+02  0.75972515134E+02  0.00000000000E+00 0.  1.
         14    1    5    5    0    0 -0.72074121850E+01  0.40425465397E+02 -0.74194871155E+01  0.41727854390E+02  0.00000000000E+00 0. -1.
        -13    1    3    3    0    0  0.20162113319E+01 -0.30107723973E+02 -0.15912101106E+02  0.34113562004E+02  0.00000000000E+00 0.  1.
         14    1    3    3    0    0  0.38163891895E+02  0.48276626466E+02 -0.31129742210E+02  0.68965035761E+02  0.00000000000E+00 0. -1.
          5    1    4    4  502    0  0.36407862094E+02  0.59715809970E+01 -0.49138162725E+02  0.61626627669E+02  0.47000000000E+01 0.  1.
         -5    1    4    4    0  502 -0.64913716359E+02 -0.10514436192E+03 -0.10947673810E+03  0.16515560420E+03  0.47000000000E+01 0.  1.
          1    1    1    2  503    0 -0.19748682523E+02 -0.27619730463E+02 -0.21182185190E+04  0.21184906311E+04  0.00000000000E+00 0. -1.
         -2    1    1    2    0  501 -0.39792148579E+02  0.68793309948E+02  0.19244864738E+03  0.20821243109E+03  0.00000000000E+00 0.  1.
<mgrwt>
<rscale>  0 0.51847886E+02</rscale>
<asrwt>0</asrwt>
<pdfrwt beam="2">  1        2 0.36510585E+00 0.33953792E+02</pdfrwt>
<pdfrwt beam="1">  1       -1 0.42874201E-01 0.79172402E+02</pdfrwt>
<totfact> 0.38779335E+01</totfact>
</mgrwt>
</event>
<event>
13    1  0.1595792E-008  0.1288588E+03  0.7546771E-02  0.1384414E+00
          2   -1    0    0  503    0  0.00000000000E+00  0.00000000000E+00  0.20315807506E+04  0.20315807506E+04  0.00000000000E+00 0. -1.
          2   -1    0    0  502    0 -0.00000000000E+00 -0.00000000000E+00 -0.26597675036E+04  0.26597675036E+04  0.00000000000E+00 0. -1.
         24    2    1    2    0    0  0.35737732914E+03 -0.26451704239E+02 -0.37253889926E+03  0.52286817065E+03  0.78661581320E+02 0.  0.
         25    2    1    2    0    0  0.17939346782E+03  0.42879615908E+02  0.27634635271E+02  0.22451557174E+03  0.12499156424E+03 0.  0.
         24    2    1    2    0    0 -0.49299659308E+03  0.78937030997E+02  0.99489510141E+03  0.11165891716E+04  0.87626591910E+02 0.  0.
        -13    1    5    5    0    0 -0.34860325520E+03  0.64900541947E+02  0.78573577676E+03  0.86204235439E+03  0.00000000000E+00 0.  1.
         14    1    5    5    0    0 -0.14439333789E+03  0.14036489051E+02  0.20915932466E+03  0.25454681719E+03  0.00000000000E+00 0. -1.
        -13    1    3    3    0    0  0.13939559002E+03 -0.19590856586E+02 -0.94690350648E+02  0.16965021274E+03  0.00000000000E+00 0.  1.
         14    1    3    3    0    0  0.21798173913E+03 -0.68608476532E+01 -0.27784854861E+03  0.35321795791E+03  0.00000000000E+00 0. -1.
          5    1    4    4  501    0  0.12785506860E+03 -0.18824087176E+02 -0.20139921214E+02  0.13087769578E+03  0.47000000000E+01 0.  1.
         -5    1    4    4    0  501  0.51538399217E+02  0.61703703083E+02  0.47774556486E+02  0.93637875966E+02  0.47000000000E+01 0.  1.
          1    1    1    2  502    0 -0.72899813615E+02 -0.10630510681E+03 -0.20504394239E+04  0.20544870381E+04  0.00000000000E+00 0. -1.
          1    1    1    2  503    0  0.29125609737E+02  0.10940164145E+02  0.77226183344E+03  0.77288830223E+03  0.00000000000E+00 0. -1.
<mgrwt>
<rscale>  0 0.63317624E+02</rscale>
<asrwt>0</asrwt>
<pdfrwt beam="1">  1        2 0.29876188E+00 0.31112511E+02</pdfrwt>
<pdfrwt beam="2">  1        2 0.39114228E+00 0.12885882E+03</pdfrwt>
<totfact> 0.66048084E+00</totfact>
</mgrwt>
</event>
<event>
13    1  0.1595792E-008  0.9049577E+02  0.7546771E-02  0.1379483E+00
          2   -1    0    0  502    0  0.00000000000E+00  0.00000000000E+00  0.17479367847E+04  0.17479367847E+04  0.00000000000E+00 0. -1.
          2   -1    0    0  503    0 -0.00000000000E+00 -0.00000000000E+00 -0.33210188425E+04  0.33210188425E+04  0.00000000000E+00 0. -1.
         24    2    1    2    0    0  0.32918334065E+02 -0.81678313670E+02 -0.15756414413E+03  0.19742497500E+03  0.79969979344E+02 0.  0.
         25    2    1    2    0    0  0.67617877910E+02 -0.37558174574E+01 -0.16675791061E+03  0.21913201640E+03  0.12499742509E+03 0.  0.
         24    2    1    2    0    0 -0.51320031335E+02  0.11798655204E+03  0.20447276068E+03  0.25087100693E+03  0.67620856085E+02 0.  0.
        -11    1    3    3    0    0  0.59435565690E+02 -0.50490835707E+02 -0.10545581765E+03  0.13115959910E+03  0.00000000000E+00 0.  1.
         12    1    3    3    0    0 -0.26517231625E+02 -0.31187477963E+02 -0.52108326476E+02  0.66265375898E+02  0.00000000000E+00 0. -1.
        -11    1    5    5    0    0 -0.47828583293E+02  0.12550830331E+03  0.17710701517E+03  0.22227640991E+03  0.00000000000E+00 0.  1.
         12    1    5    5    0    0 -0.34914480423E+01 -0.75217512632E+01  0.27365745508E+02  0.28594597019E+02  0.00000000000E+00 0. -1.
          5    1    4    4  501    0  0.44410255672E+02  0.37547697347E+02 -0.15229563250E+02  0.60300331522E+02  0.47000000000E+01 0.  1.
         -5    1    4    4    0  501  0.23207622238E+02 -0.41303514804E+02 -0.15152834736E+03  0.15883168488E+03  0.47000000000E+01 0.  1.
          1    1    1    2  502    0 -0.45292963222E+02 -0.78499632093E+02  0.14725726184E+04  0.14753588585E+04  0.00000000000E+00 0. -1.
          1    1    1    2  503    0 -0.39232174178E+01  0.45947211178E+02 -0.29258053823E+04  0.29261687704E+04  0.00000000000E+00 0. -1.
<mgrwt>
<rscale>  0 0.64599986E+02</rscale>
<asrwt>0</asrwt>
<pdfrwt beam="1">  1        2 0.25704953E+00 0.90495772E+02</pdfrwt>
<pdfrwt beam="2">  1        2 0.48838512E+00 0.46114400E+02</pdfrwt>
<totfact> 0.42221082E+00</totfact>
</mgrwt>
</event>
<event>
13    1  0.1595792E-008  0.1556516E+03  0.7546771E-02  0.1246658E+00
          2   -1    0    0  503    0  0.00000000000E+00  0.00000000000E+00  0.14187266818E+04  0.14187266818E+04  0.00000000000E+00 0. -1.
          2   -1    0    0  502    0 -0.00000000000E+00 -0.00000000000E+00 -0.28887943600E+04  0.28887943600E+04  0.00000000000E+00 0. -1.
         24    2    1    2    0    0  0.66629750979E+02 -0.21036179926E+03 -0.75973027532E+03  0.79537270084E+03  0.82073331240E+02 0.  0.
         25    2    1    2    0    0 -0.49447724656E+03 -0.20595698147E+03  0.15959972477E+02  0.55027678048E+03  0.12499515526E+03 0.  0.
         24    2    1    2    0    0  0.40414737981E+03  0.33023542855E+03  0.54406831817E+02  0.52889821624E+03  0.66201789376E+02 0.  0.
        -13    1    3    3    0    0  0.43635321269E+02 -0.19579036917E+03 -0.71842357008E+03  0.74590236356E+03  0.00000000000E+00 0.  1.
         14    1    3    3    0    0  0.22994429710E+02 -0.14571430085E+02 -0.41306705236E+02  0.49470337273E+02  0.00000000000E+00 0. -1.
        -13    1    5    5    0    0  0.33524491736E+03  0.28433037937E+03  0.68579539852E+02  0.44490007028E+03  0.00000000000E+00 0.  1.
         14    1    5    5    0    0  0.68902462442E+02  0.45905049186E+02 -0.14172708036E+02  0.83998145958E+02  0.00000000000E+00 0. -1.
          5    1    4    4  501    0 -0.58389598979E+02  0.86939576465E+01 -0.20913754192E+02  0.62804500499E+02  0.47000000000E+01 0.  1.
         -5    1    4    4    0  501 -0.43608764758E+03 -0.21465093912E+03  0.36873726669E+02  0.48747227998E+03  0.47000000000E+01 0.  1.
          1    1    1    2  502    0 -0.85564853490E+02 -0.25396943976E+02 -0.15982087733E+04  0.16006991073E+04  0.00000000000E+00 0. -1.
          1    1    1    2  503    0  0.10926496926E+03  0.11148029615E+03  0.81750456607E+03  0.83227423694E+03  0.00000000000E+00 0. -1.
<mgrwt>
<rscale>  0 0.11786684E+03</rscale>
<asrwt>0</asrwt>
<pdfrwt beam="1">  1        2 0.20863628E+00 0.15565160E+03</pdfrwt>
<pdfrwt beam="2">  1        2 0.42482270E+00 0.89254406E+02</pdfrwt>
<totfact> 0.89400082E+00</totfact>
</mgrwt>
</event>
<event>
13    1  0.1595792E-008  0.1171212E+03  0.7546771E-02  0.1263058E+00
          2   -1    0    0  503    0  0.00000000000E+00  0.00000000000E+00  0.29283588450E+04  0.29283588450E+04  0.00000000000E+00 0. -1.
         -1   -1    0    0    0  501 -0.00000000000E+00 -0.00000000000E+00 -0.10435351878E+04  0.10435351878E+04  0.00000000000E+00 0.  1.
         24    2    1    2    0    0  0.62527356020E+03  0.47711484652E+02 -0.49680572863E+02  0.63432832572E+03  0.81614059111E+02 0.  0.
         25    2    1    2    0    0 -0.46800108466E+03  0.70396799409E+02 -0.35384346962E+00  0.48949662611E+03  0.12500438855E+03 0.  0.
         24    2    1    2    0    0  0.94399080623E+01 -0.77572629202E+02  0.41917980115E+03  0.43387839403E+03  0.80200563923E+02 0.  0.
        -11    1    5    5    0    0 -0.33995621036E+02 -0.20198693653E+02  0.16821150292E+03  0.17279698837E+03  0.00000000000E+00 0.  1.
         12    1    5    5    0    0  0.43435529098E+02 -0.57373935549E+02  0.25096829822E+03  0.26108140566E+03  0.00000000000E+00 0. -1.
        -13    1    3    3    0    0  0.42565614262E+03  0.15425696062E+02 -0.67835195472E+02  0.43130350984E+03  0.00000000000E+00 0.  1.
         14    1    3    3    0    0  0.19961741757E+03  0.32285788590E+02  0.18154622609E+02  0.20302481589E+03  0.00000000000E+00 0. -1.
          5    1    4    4  502    0 -0.18047865167E+03 -0.29105740097E+02 -0.23270427567E+02  0.18434557390E+03  0.47000000000E+01 0.  1.
         -5    1    4    4    0  502 -0.28752243298E+03  0.99502539506E+02  0.22916584098E+02  0.30515105221E+03  0.47000000000E+01 0.  1.
          1    1    1    2  503    0 -0.89609423998E+02  0.46212603170E+02  0.19561186362E+04  0.19587152862E+04  0.00000000000E+00 0. -1.
         -2    1    1    2    0  501 -0.77102959604E+02 -0.86748258029E+02 -0.44044036374E+03  0.45547540072E+03  0.00000000000E+00 0.  1.
<mgrwt>
<rscale>  0 0.10866745E+03</rscale>
<asrwt>0</asrwt>
<pdfrwt beam="1">  1        2 0.43064101E+00 0.10082387E+03</pdfrwt>
<pdfrwt beam="2">  1       -1 0.15346106E+00 0.11712121E+03</pdfrwt>
<totfact> 0.13713162E+00</totfact>
</mgrwt>
</event>
<event>
13    1  0.1595792E-008  0.1346989E+03  0.7546771E-02  0.1254341E+00
          2   -1    0    0  502    0  0.00000000000E+00  0.00000000000E+00  0.22938712450E+04  0.22938712450E+04  0.00000000000E+00 0. -1.
          2   -1    0    0  503    0 -0.00000000000E+00 -0.00000000000E+00 -0.29544026354E+03  0.29544026354E+03  0.00000000000E+00 0. -1.
         24    2    1    2    0    0 -0.13026934325E+03 -0.87324566671E+02  0.34328228712E+02  0.17929466418E+03  0.79827736914E+02 0.  0.
         25    2    1    2    0    0  0.22471691811E+03 -0.69632622780E+02  0.69836892766E+03  0.74745588865E+03  0.12499900363E+03 0.  0.
         24    2    1    2    0    0  0.36283809926E+02 -0.67196129074E+01  0.82750730394E+02  0.12170184939E+03  0.81252622758E+02 0.  0.
        -11    1    5    5    0    0  0.29948898560E+02 -0.42975196881E+02  0.46525980192E+02  0.70060480335E+02  0.00000000000E+00 0.  1.
         12    1    5    5    0    0  0.63349113662E+01  0.36255583973E+02  0.36224750202E+02  0.51641369060E+02  0.00000000000E+00 0. -1.
        -13    1    3    3    0    0 -0.13678220526E+03 -0.74083838150E+02  0.43990404778E+02  0.16165686643E+03  0.00000000000E+00 0.  1.
         14    1    3    3    0    0  0.65128620050E+01 -0.13240728521E+02 -0.96621760651E+01  0.17637797753E+02  0.00000000000E+00 0. -1.
          5    1    4    4  501    0  0.54085953841E+02 -0.35605596303E+02  0.70203318204E+02  0.95622407300E+02  0.47000000000E+01 0.  1.
         -5    1    4    4    0  501  0.17063096427E+03 -0.34027026477E+02  0.62816560946E+03  0.65183348135E+03  0.47000000000E+01 0.  1.
          1    1    1    2  502    0 -0.77179588159E+02 -0.56562862132E+02  0.12876513932E+04  0.12912018264E+04  0.00000000000E+00 0. -1.
          1    1    1    2  503    0 -0.53551796629E+02  0.22023966449E+03 -0.10466829843E+03  0.24965727995E+03  0.00000000000E+00 0. -1.
<mgrwt>
<rscale>  0 0.11343312E+03</rscale>
<asrwt>0</asrwt>
<pdfrwt beam="1">  1        2 0.33733400E+00 0.95524679E+02</pdfrwt>
<pdfrwt beam="2">  1        2 0.43447099E-01 0.13469893E+03</pdfrwt>
<totfact> 0.11962827E+02</totfact>
</mgrwt>
</event>
<event>
13    1  0.1595792E-008  0.9884535E+02  0.7546771E-02  0.1394334E+00
          2   -1    0    0  503    0  0.00000000000E+00  0.00000000000E+00  0.66434002439E+02  0.66434002439E+02  0.00000000000E+00 0. -1.
          2   -1    0    0  502    0 -0.00000000000E+00 -0.00000000000E+00 -0.22824506475E+04  0.22824506475E+04  0.00000000000E+00 0. -1.
         24    2    1    2    0    0  0.62665566492E+01 -0.69801485361E+02 -0.67343274137E+03  0.68158283162E+03  0.78306973653E+02 0.  0.
         25    2    1    2    0    0  0.89305344886E+01 -0.88065240057E-01 -0.47172816431E+03  0.48809097963E+03  0.12500232474E+03 0.  0.
         24    2    1    2    0    0  0.77513163798E+02 -0.18189629912E+02 -0.78059390398E+02  0.13708270503E+03  0.79744883170E+02 0.  0.
        -11    1    5    5    0    0  0.22947989395E+02  0.27139839675E+02 -0.61444905000E+01  0.36068488718E+02  0.00000000000E+00 0.  1.
         12    1    5    5    0    0  0.54565174403E+02 -0.45329469587E+02 -0.71914899898E+02  0.10101421632E+03  0.00000000000E+00 0. -1.
        -13    1    3    3    0    0  0.12012782507E+02 -0.66548308419E+02 -0.67122129016E+03  0.67461915528E+03  0.00000000000E+00 0.  1.
         14    1    3    3    0    0 -0.57462258578E+01 -0.32531769419E+01 -0.22114512074E+01  0.69636763471E+01  0.00000000000E+00 0. -1.
          5    1    4    4  501    0 -0.11346489531E+02  0.59861966856E+02 -0.25814562461E+03  0.26527994913E+03  0.47000000000E+01 0. -1.
         -5    1    4    4    0  501  0.20277024020E+02 -0.59950032096E+02 -0.21358253970E+03  0.22281103050E+03  0.47000000000E+01 0. -1.
          1    1    1    2  502    0 -0.36229465024E+02  0.94800036618E+01 -0.92064522505E+03  0.92140657422E+03  0.00000000000E+00 0. -1.
          1    1    1    2  503    0 -0.56480789911E+02  0.78599176852E+02 -0.72151123966E+02  0.12072155947E+03  0.00000000000E+00 0. -1.
<mgrwt>
<rscale>  0 0.60841448E+02</rscale>
<asrwt>0</asrwt>
<pdfrwt beam="1">  1        2 0.97697071E-02 0.98845346E+02</pdfrwt>
<pdfrwt beam="2">  1        2 0.33565448E+00 0.37449227E+02</pdfrwt>
<totfact> 0.72545776E+02</totfact>
</mgrwt>
</event>
<event>
13    1  0.1595792E-008  0.4187392E+03  0.7546771E-02  0.1195143E+00
          2   -1    0    0  503    0  0.00000000000E+00  0.00000000000E+00  0.21645134440E+04  0.21645134440E+04  0.00000000000E+00 0. -1.
         -1   -1    0    0    0  501 -0.00000000000E+00 -0.00000000000E+00 -0.20217393261E+04  0.20217393261E+04  0.00000000000E+00 0.  1.
         24    2    1    2    0    0 -0.32689199585E+03 -0.45222629568E+03 -0.34346743922E+03  0.65995400876E+03  0.78755396124E+02 0.  0.
         25    2    1    2    0    0  0.10301954140E+03  0.96075433578E+02 -0.19069137430E+02  0.18929071228E+03  0.12499530754E+03 0.  0.
         24    2    1    2    0    0  0.45276143817E+02 -0.26360813369E+02  0.85288705974E+02  0.12879375490E+03  0.81048419194E+02 0.  0.
        -13    1    3    3    0    0 -0.29070621767E+03 -0.42645253393E+03 -0.33330227999E+03  0.61437958831E+03  0.00000000000E+00 0.  1.
         14    1    3    3    0    0 -0.36185778177E+02 -0.25773761753E+02 -0.10165159234E+02  0.45574420451E+02  0.00000000000E+00 0. -1.
        -13    1    5    5    0    0  0.19719678729E+02  0.15636760990E+02  0.74261279900E+02  0.78409895522E+02  0.00000000000E+00 0.  1.
         14    1    5    5    0    0  0.25556465088E+02 -0.41997574359E+02  0.11027426074E+02  0.50383859377E+02  0.00000000000E+00 0. -1.
          5    1    4    4  502    0  0.82316370837E+02  0.10987133845E+03  0.23886493795E+02  0.13942865741E+03  0.47000000000E+01 0.  1.
         -5    1    4    4    0  502  0.20703170559E+02 -0.13795904871E+02 -0.42955631224E+02  0.49862054874E+02  0.47000000000E+01 0.  1.
          1    1    1    2  503    0 -0.30457664432E+02  0.48117256083E+02  0.17857655651E+04  0.17866733314E+04  0.00000000000E+00 0. -1.
         -2    1    1    2    0  501  0.20905397507E+03  0.33439441939E+03 -0.13657435765E+04  0.14215409628E+04  0.00000000000E+00 0.  1.
<mgrwt>
<rscale>  0 0.15442106E+03</rscale>
<asrwt>0</asrwt>
<pdfrwt beam="1">  1        2 0.31831080E+00 0.56946814E+02</pdfrwt>
<pdfrwt beam="2">  1       -1 0.29731461E+00 0.41873919E+03</pdfrwt>
<totfact> 0.35996678E-01</totfact>
</mgrwt>
</event>
<event>
13    1  0.1595792E-008  0.3338795E+03  0.7546771E-02  0.1195340E+00
          2   -1    0    0  502    0  0.00000000000E+00  0.00000000000E+00  0.11261810508E+04  0.11261810508E+04  0.00000000000E+00 0. -1.
          2   -1    0    0  503    0 -0.00000000000E+00 -0.00000000000E+00 -0.32129465261E+04  0.32129465261E+04  0.00000000000E+00 0. -1.
         24    2    1    2    0    0  0.40719680848E+02  0.57883815802E+01 -0.85013515009E+02  0.12348585894E+03  0.79560428948E+02 0.  0.
         25    2    1    2    0    0 -0.51366649902E+03  0.24116853907E+03 -0.19955437097E+04  0.20784215660E+04  0.12500388865E+03 0.  0.
         24    2    1    2    0    0 -0.84690841100E+02 -0.20464408652E+03 -0.30786252910E+02  0.23723648334E+03  0.79256639766E+02 0.  0.
        -13    1    5    5    0    0 -0.50402159780E+02 -0.10658325568E+03  0.23203717123E+02  0.12016147715E+03  0.00000000000E+00 0.  1.
         14    1    5    5    0    0 -0.34288681320E+02 -0.98060830836E+02 -0.53989970032E+02  0.11707500619E+03  0.00000000000E+00 0. -1.
        -13    1    3    3    0    0 -0.14755998627E+02  0.25390775290E+02 -0.38848231378E+02  0.48699240718E+02  0.00000000000E+00 0.  1.
         14    1    3    3    0    0  0.55475679475E+02 -0.19602393710E+02 -0.46165283631E+02  0.74786618222E+02  0.00000000000E+00 0. -1.
          5    1    4    4  501    0 -0.30726368935E+03  0.20372978214E+03 -0.13628760671E+04  0.14118675800E+04  0.47000000000E+01 0. -1.
         -5    1    4    4    0  501 -0.20640280967E+03  0.37438756929E+02 -0.63266764252E+03  0.66655398600E+03  0.47000000000E+01 0. -1.
          1    1    1    2  502    0  0.50480654317E+03  0.55187686386E+01  0.89451076208E+03  0.10271366055E+04  0.00000000000E+00 0. -1.
          1    1    1    2  503    0  0.52831116109E+02 -0.47831602773E+02 -0.86993275984E+03  0.87284706318E+03  0.00000000000E+00 0. -1.
<mgrwt>
<rscale>  0 0.15425498E+03</rscale>
<asrwt>0</asrwt>
<pdfrwt beam="1">  1        2 0.16561486E+00 0.33387950E+03</pdfrwt>
<pdfrwt beam="2">  1        2 0.47249214E+00 0.71267026E+02</pdfrwt>
<totfact> 0.85574112E+00</totfact>
</mgrwt>
</event>
<event>
13    1  0.1595792E-008  0.7543906E+02  0.7546771E-02  0.1351013E+00
          2   -1    0    0  502    0  0.00000000000E+00  0.00000000000E+00  0.62313500646E+03  0.62313500646E+03  0.00000000000E+00 0. -1.
          2   -1    0    0  503    0 -0.00000000000E+00 -0.00000000000E+00 -0.58412335910E+03  0.58412335910E+03  0.00000000000E+00 0. -1.
         24    2    1    2    0    0 -0.24486844862E+02  0.43783629068E+02 -0.31342427283E+02  0.99080834581E+02  0.79486176707E+02 0.  0.
         25    2    1    2    0    0  0.59378140344E+02 -0.14340033063E+03  0.10232549922E+03  0.22402641763E+03  0.12501163798E+03 0.  0.
         24    2    1    2    0    0  0.61206961135E+02  0.82530379665E+02  0.55733978132E+02  0.14218031274E+03  0.80940776821E+02 0.  0.
        -11    1    3    3    0    0 -0.50993241161E+02  0.19468947841E+02 -0.31678279819E+02  0.63109935719E+02  0.00000000000E+00 0.  1.
         12    1    3    3    0    0  0.26506396300E+02  0.24314681227E+02  0.33585253593E+00  0.35970898862E+02  0.00000000000E+00 0. -1.
        -13    1    5    5    0    0  0.33666727801E+02  0.93441293293E+02  0.32404334426E+02  0.10447375145E+03  0.00000000000E+00 0.  1.
         14    1    5    5    0    0  0.27540233334E+02 -0.10910913629E+02  0.23329643706E+02  0.37706561282E+02  0.00000000000E+00 0. -1.
          5    1    4    4  501    0 -0.37957825497E+02 -0.55258211791E+02  0.25921236159E+02  0.72029625646E+02  0.47000000000E+01 0. -1.
         -5    1    4    4    0  501  0.97335965841E+02 -0.88142118837E+02  0.76404263064E+02  0.15199679198E+03  0.47000000000E+01 0. -1.
          1    1    1    2  502    0 -0.61524880890E+02 -0.43939869714E+02  0.31972747443E+03  0.32854479303E+03  0.00000000000E+00 0. -1.
          1    1    1    2  503    0 -0.34573375727E+02  0.61026191609E+02 -0.40743287715E+03  0.41342600759E+03  0.00000000000E+00 0. -1.
<mgrwt>
<rscale>  0 0.72740902E+02</rscale>
<asrwt>0</asrwt>
<pdfrwt beam="1">  1        2 0.91637501E-01 0.75439056E+02</pdfrwt>
<pdfrwt beam="2">  1        2 0.85900494E-01 0.70139250E+02</pdfrwt>
<totfact> 0.45857211E+02</totfact>
</mgrwt>
</event>
<event>
13    1  0.1595792E-008  0.1997372E+03  0.7546771E-02  0.1274191E+00
          2   -1    0    0  502    0  0.00000000000E+00  0.00000000000E+00  0.34981440795E+04  0.34981440795E+04  0.00000000000E+00 0. -1.
          2   -1    0    0  503    0 -0.00000000000E+00 -0.00000000000E+00 -0.13902612942E+04  0.13902612942E+04  0.00000000000E+00 0. -1.
         24    2    1    2    0    0  0.60157207693E+02  0.11294477719E+03 -0.23624617311E+03  0.27987475765E+03  0.78372273970E+02 0.  0.
         25    2    1    2    0    0  0.14412926036E+03 -0.36360334841E+03  0.85415519599E+03  0.94772692172E+03  0.12499832257E+03 0.  0.
         24    2    1    2    0    0 -0.53225299600E+02  0.88093684830E+02  0.42834428662E+02  0.13731998966E+03  0.80178310391E+02 0.  0.
        -11    1    3    3    0    0  0.57449258410E+02  0.26452765402E+02 -0.10822865828E+03  0.12535393317E+03  0.00000000000E+00 0.  1.
         12    1    3    3    0    0  0.27079492833E+01  0.86492011790E+02 -0.12801751483E+03  0.15452082448E+03  0.00000000000E+00 0. -1.
        -11    1    5    5    0    0  0.43427009030E+01  0.48237056212E+00 -0.16357505165E+02  0.16931027958E+02  0.00000000000E+00 0.  1.
         12    1    5    5    0    0 -0.57568000503E+02  0.87611314268E+02  0.59191933827E+02  0.12038896170E+03  0.00000000000E+00 0. -1.
          5    1    4    4  501    0  0.25053684840E+02 -0.22638865229E+03  0.50865794012E+03  0.55734594199E+03  0.47000000000E+01 0. -1.
         -5    1    4    4    0  501  0.11907557552E+03 -0.13721469613E+03  0.34549725588E+03  0.39038097974E+03  0.47000000000E+01 0. -1.
          1    1    1    2  502    0  0.31087123161E+02  0.43016573260E+02  0.24735926264E+04  0.24741619422E+04  0.00000000000E+00 0. -1.
          1    1    1    2  503    0 -0.18214829162E+03  0.11954831313E+03 -0.10264532926E+04  0.10493217625E+04  0.00000000000E+00 0. -1.
<mgrwt>
<rscale>  0 0.10296030E+03</rscale>
<asrwt>0</asrwt>
<pdfrwt beam="1">  1        2 0.51443295E+00 0.53073862E+02</pdfrwt>
<pdfrwt beam="2">  1        2 0.20445019E+00 0.19973717E+03</pdfrwt>
<totfact> 0.46313068E+00</totfact>
</mgrwt>
</event>
<event>
13    1  0.1595792E-008  0.1018215E+03  0.7546771E-02  0.1343931E+00
          2   -1    0    0  503    0  0.00000000000E+00  0.00000000000E+00  0.23198260384E+04  0.23198260384E+04  0.00000000000E+00 0. -1.
          2   -1    0    0  502    0 -0.00000000000E+00 -0.00000000000E+00 -0.37203955047E+04  0.37203955047E+04  0.00000000000E+00 0. -1.
         24    2    1    2    0    0 -0.37301768634E+03  0.17463751911E+03 -0.46148899683E+03  0.62362104618E+03  0.79313666142E+02 0.  0.
         25    2    1    2    0    0 -0.70582185006E+02 -0.26248510528E+03 -0.25401646567E+03  0.39246386401E+03  0.12499297736E+03 0.  0.
         24    2    1    2    0    0  0.36803465702E+03  0.22520071033E+03  0.14309954938E+03  0.45819092772E+03  0.57415821018E+02 0.  0.
        -11    1    5    5    0    0  0.20476024132E+03  0.96525131309E+02  0.58950260023E+02  0.23392090663E+03  0.00000000000E+00 0.  1.
         12    1    5    5    0    0  0.16327441570E+03  0.12867557902E+03  0.84149289357E+02  0.22427002109E+03  0.00000000000E+00 0. -1.
        -13    1    3    3    0    0 -0.21130722858E+03  0.12707865288E+03 -0.22943355563E+03  0.33680778690E+03  0.00000000000E+00 0.  1.
         14    1    3    3    0    0 -0.16171045776E+03  0.47558866232E+02 -0.23205544121E+03  0.28681325928E+03  0.00000000000E+00 0. -1.
          5    1    4    4  501    0  0.26711288830E+02 -0.16900498567E+02 -0.11881801221E+02  0.34093797134E+02  0.47000000000E+01 0.  1.
         -5    1    4    4    0  501 -0.97293473835E+02 -0.24558460671E+03 -0.24213466445E+03  0.35837006688E+03  0.47000000000E+01 0.  1.
          1    1    1    2  502    0  0.51894863874E+02 -0.87468876002E+02 -0.26956876368E+04  0.26976055524E+04  0.00000000000E+00 0. -1.
          1    1    1    2  503    0  0.23670350446E+02 -0.49884248164E+02  0.18675240836E+04  0.18683401528E+04  0.00000000000E+00 0. -1.
<mgrwt>
<rscale>  0 0.74980677E+02</rscale>
<asrwt>0</asrwt>
<pdfrwt beam="1">  1        2 0.34115089E+00 0.55215249E+02</pdfrwt>
<pdfrwt beam="2">  1        2 0.54711698E+00 0.10182154E+03</pdfrwt>
<totfact> 0.11991362E+00</totfact>
</mgrwt>
</event>
<event>
13    1  0.1595792E-008  0.8560762E+02  0.7546771E-02  0.1428918E+00
          2   -1    0    0  502    0  0.00000000000E+00  0.00000000000E+00  0.15920776310E+04  0.15920776310E+04  0.00000000000E+00 0. -1.
          2   -1    0    0  503    0 -0.00000000000E+00 -0.00000000000E+00 -0.15343582058E+04  0.15343582058E+04  0.00000000000E+00 0. -1.
         24    2    1    2    0    0 -0.21738899101E+03  0.36221320667E+03 -0.68728445586E+03  0.81257975686E+03  0.97311651361E+02 0.  0.
         25    2    1    2    0    0  0.12429527557E+03 -0.38158922648E+03  0.34889288574E+03  0.54627005636E+03  0.12500030182E+03 0.  0.
         24    2    1    2    0    0  0.24978214955E+02  0.11633546259E+03  0.15959508892E+03  0.21564148089E+03  0.82902381112E+02 0.  0.
        -11    1    5    5    0    0 -0.85307091232E+01  0.78709076140E+02  0.14143233254E+03  0.16208330066E+03  0.00000000000E+00 0.  1.
         12    1    5    5    0    0  0.33508924078E+02  0.37626386445E+02  0.18162756379E+02  0.53558180226E+02  0.00000000000E+00 0. -1.
        -11    1    3    3    0    0 -0.13904270661E+03  0.24678545239E+03 -0.53956419791E+03  0.60939761850E+03  0.00000000000E+00 0.  1.
         12    1    3    3    0    0 -0.78346284401E+02  0.11542775428E+03 -0.14772025795E+03  0.20318213836E+03  0.00000000000E+00 0. -1.
          5    1    4    4  501    0  0.14392790051E+02  0.21718234682E+01  0.35776796002E+02  0.38909360761E+02  0.47000000000E+01 0. -1.
         -5    1    4    4    0  501  0.10990248552E+03 -0.38376104995E+03  0.31311608974E+03  0.50736069560E+03  0.47000000000E+01 0. -1.
          1    1    1    2  502    0  0.47663882347E+02 -0.71018968879E+02  0.89176801134E+03  0.89586032710E+03  0.00000000000E+00 0. -1.
          1    1    1    2  503    0  0.20451618139E+02 -0.25940473893E+02 -0.65525210498E+03  0.65608421559E+03  0.00000000000E+00 0. -1.
<mgrwt>
<rscale>  0 0.53177757E+02</rscale>
<asrwt>0</asrwt>
<pdfrwt beam="1">  1        2 0.23412906E+00 0.85607625E+02</pdfrwt>
<pdfrwt beam="2">  1        2 0.22564091E+00 0.33032966E+02</pdfrwt>
<totfact> 0.38467599E+01</totfact>
</mgrwt>
</event>
<event>
13    1  0.1595792E-008  0.5452582E+02  0.7546771E-02  0.1521775E+00
          2   -1    0    0  502    0  0.00000000000E+00  0.00000000000E+00  0.10917496849E+04  0.10917496849E+04  0.00000000000E+00 0. -1.
          2   -1    0    0  503    0 -0.00000000000E+00 -0.00000000000E+00 -0.43587905326E+04  0.43587905326E+04  0.00000000000E+00 0. -1.
         24    2    1    2    0    0 -0.81436576260E+02 -0.34702467962E+03 -0.17663215130E+04  0.18036835258E+04  0.79526910693E+02 0.  0.
         25    2    1    2    0    0 -0.64130294008E+02  0.20111190933E+03 -0.47225117944E+03  0.53215715991E+03  0.12494547484E+03 0.  0.
         24    2    1    2    0    0  0.18237984208E+03  0.21432242966E+03  0.14356891112E+03  0.32259991282E+03  0.65285226964E+02 0.  0.
        -11    1    5    5    0    0  0.69039276115E+02  0.12344396214E+03  0.51069919019E+02  0.15037609538E+03  0.00000000000E+00 0.  1.
         12    1    5    5    0    0  0.11334056597E+03  0.90878467520E+02  0.92498992102E+02  0.17222381744E+03  0.00000000000E+00 0. -1.
        -11    1    3    3    0    0 -0.98038511826E+01 -0.17203391644E+03 -0.71310169441E+03  0.73362511576E+03  0.00000000000E+00 0.  1.
         12    1    3    3    0    0 -0.71632725077E+02 -0.17499076319E+03 -0.10532198186E+04  0.10700584100E+04  0.00000000000E+00 0. -1.
          5    1    4    4  501    0 -0.39387322323E+02  0.20707485616E+03 -0.36214014098E+03  0.41904525880E+03  0.47000000000E+01 0. -1.
         -5    1    4    4    0  501 -0.24742971684E+02 -0.59629468337E+01 -0.11011103846E+03  0.11311190111E+03  0.47000000000E+01 0. -1.
          1    1    1    2  502    0 -0.35143395318E+02 -0.41678550877E+02  0.80902335537E+03  0.81085815613E+03  0.00000000000E+00 0. -1.
          1    1    1    2  503    0 -0.16695764974E+01 -0.26731108485E+02 -0.19810604217E+04  0.19812414629E+04  0.00000000000E+00 0. -1.
<mgrwt>
<rscale>  0 0.38214863E+02</rscale>
<asrwt>0</asrwt>
<pdfrwt beam="1">  1        2 0.16055143E+00 0.54525819E+02</pdfrwt>
<pdfrwt beam="2">  1        2 0.64099859E+00 0.26783197E+02</pdfrwt>
<totfact> 0.24026012E+00</totfact>
</mgrwt>
</event>
<event>
13    1  0.1595792E-008  0.3691338E+02  0.7546771E-02  0.1619753E+00
          2   -1    0    0  502    0  0.00000000000E+00  0.00000000000E+00  0.83820660136E+03  0.83820660136E+03  0.00000000000E+00 0. -1.
          2   -1    0    0  503    0 -0.00000000000E+00 -0.00000000000E+00 -0.57563514214E+03  0.57563514214E+03  0.00000000000E+00 0. -1.
         24    2    1    2    0    0  0.64256574610E+02 -0.22211506909E+01 -0.29868239832E+03  0.31535885292E+03  0.78142115117E+02 0.  0.
         25    2    1    2    0    0 -0.61997058001E+02 -0.38003680520E+02  0.13491990044E+03  0.19777925293E+03  0.12500135368E+03 0.  0.
         24    2    1    2    0    0  0.27341418628E+02 -0.17019372680E+01  0.15798974673E+03  0.17959657100E+03  0.80893253629E+02 0.  0.
        -13    1    5    5    0    0  0.52724904367E+02  0.81393104748E+01  0.13014066635E+03  0.14065118895E+03  0.00000000000E+00 0.  1.
         14    1    5    5    0    0 -0.25383485739E+02 -0.98412477428E+01  0.27849080378E+02  0.38945382054E+02  0.00000000000E+00 0. -1.
        -13    1    3    3    0    0  0.44328502723E+02 -0.34907603297E+02 -0.22904741503E+03  0.23589462744E+03  0.00000000000E+00 0.  1.
         14    1    3    3    0    0  0.19928071887E+02  0.32686452606E+02 -0.69634983291E+02  0.79464225480E+02  0.00000000000E+00 0. -1.
          5    1    4    4  501    0  0.28061014306E+02  0.17979339226E+02  0.56663623850E+02  0.65905488623E+02  0.47000000000E+01 0.  1.
         -5    1    4    4    0  501 -0.90058072307E+02 -0.55983019746E+02  0.78256276589E+02  0.13187376431E+03  0.47000000000E+01 0.  1.
          1    1    1    2  502    0 -0.90741274759E+01  0.35758292203E+02  0.49352830071E+03  0.49490522209E+03  0.00000000000E+00 0. -1.
          1    1    1    2  503    0 -0.20526807761E+02  0.61684762766E+01 -0.22518409034E+03  0.22620184455E+03  0.00000000000E+00 0. -1.
<mgrwt>
<rscale>  0 0.28128052E+02</rscale>
<asrwt>0</asrwt>
<pdfrwt beam="1">  1        2 0.12326568E+00 0.36913383E+02</pdfrwt>
<pdfrwt beam="2">  1        2 0.84652226E-01 0.21433617E+02</pdfrwt>
<totfact> 0.34626269E+02</totfact>
</mgrwt>
</event>
<event>
13    1  0.1595792E-008  0.9182323E+02  0.7546771E-02  0.1393393E+00
          2   -1    0    0  503    0  0.00000000000E+00  0.00000000000E+00  0.35761360366E+04  0.35761360366E+04  0.00000000000E+00 0. -1.
          2   -1    0    0  502    0 -0.00000000000E+00 -0.00000000000E+00 -0.23192739143E+04  0.23192739143E+04  0.00000000000E+00 0. -1.
         24    2    1    2    0    0 -0.53886131180E+02  0.22325247014E+03 -0.41939870890E+03  0.48492720845E+03  0.80707743814E+02 0.  0.
         25    2    1    2    0    0 -0.37327235287E+03 -0.40228507061E+03  0.46536513510E+03  0.73031097795E+03  0.12499555231E+03 0.  0.
         24    2    1    2    0    0  0.47271565127E+03  0.15473155988E+03  0.55356194802E+03  0.74827961181E+03  0.78035918499E+02 0.  0.
        -11    1    5    5    0    0  0.16742826121E+03  0.94658919301E+02  0.21013638963E+03  0.28486810264E+03  0.00000000000E+00 0.  1.
         12    1    5    5    0    0  0.30528739006E+03  0.60072640583E+02  0.34342555838E+03  0.46341150916E+03  0.00000000000E+00 0. -1.
        -13    1    3    3    0    0 -0.61188301410E+01  0.14115073811E+03 -0.19109080751E+03  0.23764820148E+03  0.00000000000E+00 0.  1.
         14    1    3    3    0    0 -0.47767301039E+02  0.82101732023E+02 -0.22830790139E+03  0.24727900697E+03  0.00000000000E+00 0. -1.
          5    1    4    4  501    0 -0.38143898346E+03 -0.39866126127E+03  0.46206696276E+03  0.71969053586E+03  0.47000000000E+01 0. -1.
         -5    1    4    4    0  501  0.81666305904E+01 -0.36238093451E+01  0.32981723412E+01  0.10620442089E+02  0.47000000000E+01 0. -1.
          1    1    1    2  502    0  0.38695620776E+02 -0.12345525485E+02 -0.16361073446E+04  0.16366114402E+04  0.00000000000E+00 0. -1.
          1    1    1    2  503    0 -0.84252787994E+02  0.36646566075E+02  0.22934410928E+04  0.22952807125E+04  0.00000000000E+00 0. -1.
<mgrwt>
<rscale>  0 0.61070527E+02</rscale>
<asrwt>0</asrwt>
<pdfrwt beam="1">  1        2 0.52590235E+00 0.91823227E+02</pdfrwt>
<pdfrwt beam="2">  1        2 0.34106970E+00 0.40617275E+02</pdfrwt>
<totfact> 0.15595495E+00</totfact>
</mgrwt>
</event>
<event>
13    1  0.1595792E-008  0.1492189E+03  0.7546771E-02  0.1284139E+00
          2   -1    0    0  503    0  0.00000000000E+00  0.00000000000E+00  0.10995861856E+04  0.10995861856E+04  0.00000000000E+00 0. -1.
          2   -1    0    0  502    0 -0.00000000000E+00 -0.00000000000E+00 -0.55148687365E+03  0.55148687365E+03  0.00000000000E+00 0. -1.
         24    2    1    2    0    0 -0.28643835366E+02 -0.14694448727E+03 -0.73932048417E+02  0.18485069270E+03  0.79313801859E+02 0.  0.
         25    2    1    2    0    0  0.18185402703E+03  0.22751968320E+02 -0.78239242754E+02  0.23523395083E+03  0.12500037323E+03 0.  0.
         24    2    1    2    0    0 -0.54249050987E+02 -0.58472943404E+02  0.29942195755E+02  0.11729165186E+03  0.80614836512E+02 0.  0.
        -11    1    3    3    0    0  0.21790655837E+02 -0.85987289210E+02 -0.51691068567E+02  0.10266748832E+03  0.00000000000E+00 0.  1.
         12    1    3    3    0    0 -0.50434491204E+02 -0.60957198063E+02 -0.22240979849E+02  0.82183204387E+02  0.00000000000E+00 0. -1.
        -13    1    5    5    0    0 -0.11468225166E+02 -0.54217020751E+02 -0.12576189923E+02  0.56825751913E+02  0.00000000000E+00 0.  1.
         14    1    5    5    0    0 -0.42780825821E+02 -0.42559226534E+01  0.42518385678E+02  0.60465899946E+02  0.00000000000E+00 0. -1.
          5    1    4    4  501    0  0.10725230691E+02  0.43957713586E+02  0.77450192782E+00  0.45497263767E+02  0.47000000000E+01 0.  1.
         -5    1    4    4    0  501  0.17112879634E+03 -0.21205745266E+02 -0.79013744682E+02  0.18973668706E+03  0.47000000000E+01 0.  1.
          1    1    1    2  502    0 -0.65062097880E+02  0.12765350710E+03 -0.19720581213E+03  0.24375936247E+03  0.00000000000E+00 0. -1.
          1    1    1    2  503    0 -0.33899042800E+02  0.55011955261E+02  0.86753421945E+03  0.86993740134E+03  0.00000000000E+00 0. -1.
<mgrwt>
<rscale>  0 0.98194688E+02</rscale>
<asrwt>0</asrwt>
<pdfrwt beam="1">  1        2 0.16170385E+00 0.64617802E+02</pdfrwt>
<pdfrwt beam="2">  1        2 0.81101011E-01 0.14921889E+03</pdfrwt>
<totfact> 0.24352924E+02</totfact>
</mgrwt>
</event>
<event>
13    1  0.1595792E-008  0.1566916E+03  0.7546771E-02  0.1399266E+00
          2   -1    0    0  502    0  0.00000000000E+00  0.00000000000E+00  0.18327386485E+04  0.18327386485E+04  0.00000000000E+00 0. -1.
          2   -1    0    0  503    0 -0.00000000000E+00 -0.00000000000E+00 -0.17841020041E+04  0.17841020041E+04  0.00000000000E+00 0. -1.
         24    2    1    2    0    0  0.79399692103E+02 -0.18256176698E+03 -0.24281365829E+03  0.32272225138E+03  0.74552458155E+02 0.  0.
         25    2    1    2    0    0 -0.22097222956E+03  0.25195497530E+03  0.12681399968E+03  0.37950059007E+03  0.12501548519E+03 0.  0.
         24    2    1    2    0    0  0.70784122616E+02  0.69492229161E+02 -0.44589649323E+01  0.12700088714E+03  0.79181948946E+02 0.  0.
        -11    1    5    5    0    0  0.67671694166E+02  0.55062733302E+02 -0.34272205958E+02  0.93733381947E+02  0.00000000000E+00 0.  1.
         12    1    5    5    0    0  0.31124284495E+01  0.14429495860E+02  0.29813241026E+02  0.33267505198E+02  0.00000000000E+00 0. -1.
        -13    1    3    3    0    0 -0.13923492977E+02 -0.25892825509E+02 -0.44255296152E+02  0.53130342621E+02  0.00000000000E+00 0.  1.
         14    1    3    3    0    0  0.93323185081E+02 -0.15666894147E+03 -0.19855836213E+03  0.26959190876E+03  0.00000000000E+00 0. -1.
          5    1    4    4  501    0 -0.13674499413E+03  0.90273893580E+02  0.10769730320E+03  0.19613609662E+03  0.47000000000E+01 0. -1.
         -5    1    4    4    0  501 -0.84227235426E+02  0.16168108172E+03  0.19116696473E+02  0.18336449345E+03  0.47000000000E+01 0. -1.
          1    1    1    2  502    0  0.20290209326E+02  0.10211732194E+02  0.14735365609E+04  0.14737116300E+04  0.00000000000E+00 0. -1.
          1    1    1    2  503    0  0.50498205511E+02 -0.14909716967E+03 -0.13044412930E+04  0.13139052940E+04  0.00000000000E+00 0. -1.
<mgrwt>
<rscale>  0 0.59659477E+02</rscale>
<asrwt>0</asrwt>
<pdfrwt beam="1">  1        2 0.26952039E+00 0.22715019E+02</pdfrwt>
<pdfrwt beam="2">  1        2 0.26236794E+00 0.15669162E+03</pdfrwt>
<totfact> 0.22396214E+01</totfact>
</mgrwt>
</event>
<event>
13    1  0.1595792E-008  0.6826445E+02  0.7546771E-02  0.1452663E+00
          2   -1    0    0  502    0  0.00000000000E+00  0.00000000000E+00  0.75412457596E+03  0.75412457596E+03  0.00000000000E+00 0. -1.
          2   -1    0    0  503    0 -0.00000000000E+00 -0.00000000000E+00 -0.11354304090E+04  0.11354304090E+04  0.00000000000E+00 0. -1.
         24    2    1    2    0    0  0.32402821417E+02 -0.41837581872E+02 -0.85372100486E+02  0.12564664631E+03  0.75487469793E+02 0.  0.
         25    2    1    2    0    0 -0.17352951929E+03  0.59772410164E+02 -0.44058007822E+03  0.49337777310E+03  0.12500234632E+03 0.  0.
         24    2    1    2    0    0  0.21028393337E+03 -0.63708143168E+01  0.20030096159E+03  0.30165359961E+03  0.81329570474E+02 0.  0.
        -13    1    3    3    0    0 -0.23373554648E+02 -0.14252891687E+02 -0.13320774241E+02  0.30445213166E+02  0.00000000000E+00 0.  1.
         14    1    3    3    0    0  0.55776376066E+02 -0.27584690185E+02 -0.72051326246E+02  0.95201433148E+02  0.00000000000E+00 0. -1.
        -13    1    5    5    0    0  0.99093063074E+02  0.33749496211E+02  0.11728384908E+03  0.15720675844E+03  0.00000000000E+00 0.  1.
         14    1    5    5    0    0  0.11119087030E+03 -0.40120310528E+02  0.83017112513E+02  0.14444684117E+03  0.00000000000E+00 0. -1.
          5    1    4    4  501    0 -0.18601683917E+03  0.31196601083E+02 -0.35242222537E+03  0.39974868018E+03  0.47000000000E+01 0. -1.
         -5    1    4    4    0  501  0.12487319873E+02  0.28575809081E+02 -0.88157852848E+02  0.93629092920E+02  0.47000000000E+01 0. -1.
          1    1    1    2  502    0 -0.15680989440E+02  0.30950908616E+02  0.45366805651E+03  0.45499292046E+03  0.00000000000E+00 0. -1.
          1    1    1    2  503    0 -0.53476246056E+02 -0.42514922592E+02 -0.50932267239E+03  0.51388404543E+03  0.00000000000E+00 0. -1.
<mgrwt>
<rscale>  0 0.48667673E+02</rscale>
<asrwt>0</asrwt>
<pdfrwt beam="1">  1        2 0.11090067E+00 0.34696573E+02</pdfrwt>
<pdfrwt beam="2">  1        2 0.16697506E+00 0.68264448E+02</pdfrwt>
<totfact> 0.16960356E+02</totfact>
</mgrwt>
</event>
<event>
13    1  0.1595792E-008  0.5335034E+02  0.7546771E-02  0.1456636E+00
          4   -1    0    0  503    0  0.00000000000E+00  0.00000000000E+00  0.19614992518E+03  0.19614992518E+03  0.00000000000E+00 0. -1.
         -1   -1    0    0    0  501 -0.00000000000E+00 -0.00000000000E+00 -0.22846580923E+04  0.22846580923E+04  0.00000000000E+00 0.  1.
         24    2    1    2    0    0  0.19143652220E+02 -0.44795443809E+01 -0.53556859777E+03  0.54168472568E+03  0.78753243655E+02 0.  0.
         25    2    1    2    0    0  0.92006333625E+02  0.30625985870E+02 -0.91374604225E+02  0.18268994239E+03  0.12499272105E+03 0.  0.
         24    2    1    2    0    0 -0.55416427519E+02  0.50695530220E+02  0.66041563256E+02  0.12818568373E+03  0.80181445569E+02 0.  0.
        -11    1    3    3    0    0  0.46485093618E+02  0.12089967720E+02 -0.27512472368E+03  0.27928595530E+03  0.00000000000E+00 0.  1.
         12    1    3    3    0    0 -0.27341441397E+02 -0.16569512101E+02 -0.26044387408E+03  0.26239877038E+03  0.00000000000E+00 0. -1.
        -11    1    5    5    0    0 -0.30061594071E+02  0.62185981721E+02  0.15964934295E+02  0.70891994525E+02  0.00000000000E+00 0.  1.
         12    1    5    5    0    0 -0.25354833448E+02 -0.11490451501E+02  0.50076628961E+02  0.57293689208E+02  0.00000000000E+00 0. -1.
          5    1    4    4  502    0  0.99378043230E+02 -0.18111017310E+02 -0.33509561818E+02  0.10653161576E+03  0.47000000000E+01 0. -1.
         -5    1    4    4    0  502 -0.73717096052E+01  0.48737003180E+02 -0.57865042407E+02  0.76158326624E+02  0.47000000000E+01 0. -1.
          3    1    1    2  503    0 -0.18217582203E+02 -0.39086651906E+02  0.40546420359E+02  0.59191712786E+02  0.00000000000E+00 0. -1.
         -2    1    1    2    0  501 -0.37515976123E+02 -0.37755319802E+02 -0.15681529487E+04  0.15690559529E+04  0.00000000000E+00 0.  1.
<mgrwt>
<rscale>  0 0.47965195E+02</rscale>
<asrwt>0</asrwt>
<pdfrwt beam="1">  1        4 0.28845576E-01 0.43123621E+02</pdfrwt>
<pdfrwt beam="2">  1       -1 0.33597914E+00 0.53350344E+02</pdfrwt>
<totfact> 0.10918092E+00</totfact>
</mgrwt>
</event>
<event>
13    1  0.1595792E-008  0.1861350E+03  0.7546771E-02  0.1330366E+00
          2   -1    0    0  503    0  0.00000000000E+00  0.00000000000E+00  0.32548508560E+03  0.32548508560E+03  0.00000000000E+00 0. -1.
          2   -1    0    0  502    0 -0.00000000000E+00 -0.00000000000E+00 -0.17382680327E+04  0.17382680327E+04  0.00000000000E+00 0. -1.
         24    2    1    2    0    0  0.23477723867E+02 -0.15877827842E+02 -0.11565520764E+03  0.14347341228E+03  0.80032393705E+02 0.  0.
         25    2    1    2    0    0 -0.17000216149E+03  0.22674074290E+03 -0.35679738692E+03  0.47248578407E+03  0.12500536560E+03 0.  0.
         24    2    1    2    0    0  0.10686433058E+03  0.20305686204E+02  0.32518249587E+02  0.13862948975E+03  0.79551196284E+02 0.  0.
        -11    1    3    3    0    0 -0.23268980722E+02 -0.10007391491E+02 -0.81325851362E+02  0.85179149139E+02  0.00000000000E+00 0.  1.
         12    1    3    3    0    0  0.46746704589E+02 -0.58704363512E+01 -0.34329356282E+02  0.58294263145E+02  0.00000000000E+00 0. -1.
        -13    1    5    5    0    0  0.79847762329E+02  0.48259199950E+02  0.35066175935E+02  0.99670718988E+02  0.00000000000E+00 0.  1.
         14    1    5    5    0    0  0.27016568250E+02 -0.27953513746E+02 -0.25479263480E+01  0.38958770764E+02  0.00000000000E+00 0. -1.
          5    1    4    4  501    0 -0.16622010536E+03  0.24094422729E+03 -0.32680284146E+03  0.43875440883E+03  0.47000000000E+01 0.  1.
         -5    1    4    4    0  501 -0.37820561340E+01 -0.14203484387E+02 -0.29994545467E+02  0.33731375233E+02  0.47000000000E+01 0.  1.
          1    1    1    2  502    0 -0.32649567914E+02 -0.94446083020E+01 -0.10597410278E+04  0.10602859241E+04  0.00000000000E+00 0. -1.
          1    1    1    2  503    0  0.72309674957E+02 -0.22172399296E+03  0.86892425659E+02  0.24887850808E+03  0.00000000000E+00 0. -1.
<mgrwt>
<rscale>  0 0.79538580E+02</rscale>
<asrwt>0</asrwt>
<pdfrwt beam="1">  1        2 0.47865454E-01 0.18613500E+03</pdfrwt>
<pdfrwt beam="2">  1        2 0.25562765E+00 0.33988158E+02</pdfrwt>
<totfact> 0.22107644E+02</totfact>
</mgrwt>
</event>
<event>
13    1  0.1595792E-008  0.9876059E+02  0.7546771E-02  0.1477154E+00
          2   -1    0    0  503    0  0.00000000000E+00  0.00000000000E+00  0.87503056719E+03  0.87503056719E+03  0.00000000000E+00 0. -1.
          2   -1    0    0  502    0 -0.00000000000E+00 -0.00000000000E+00 -0.79937567496E+03  0.79937567496E+03  0.00000000000E+00 0. -1.
         24    2    1    2    0    0 -0.43951542042E+02  0.71695080396E+02 -0.80088253549E+02  0.14184506527E+03  0.81449196334E+02 0.  0.
         25    2    1    2    0    0  0.17792404214E+03 -0.13146850310E+03  0.34693422360E+03  0.43003245822E+03  0.12499451006E+03 0.  0.
         24    2    1    2    0    0 -0.47150263231E+02  0.40261039591E+02  0.30854315018E+03  0.32485667501E+03  0.80553616581E+02 0.  0.
        -11    1    5    5    0    0  0.18589738317E+02  0.95956062176E+01  0.27213784886E+02  0.34325560698E+02  0.00000000000E+00 0.  1.
         12    1    5    5    0    0 -0.65740001548E+02  0.30665433373E+02  0.28132936529E+03  0.29053111431E+03  0.00000000000E+00 0. -1.
        -13    1    3    3    0    0 -0.18205091197E+02 -0.12270943884E+02  0.14534316496E+01  0.22002587867E+02  0.00000000000E+00 0.  1.
         14    1    3    3    0    0 -0.25746450845E+02  0.83966024280E+02 -0.81541685199E+02  0.11984247740E+03  0.00000000000E+00 0. -1.
          5    1    4    4  501    0  0.11052564548E+03 -0.14715626995E+03  0.23804189157E+03  0.30092676558E+03  0.47000000000E+01 0. -1.
         -5    1    4    4    0  501  0.67398396656E+02  0.15687766851E+02  0.10889233202E+03  0.12910569265E+03  0.47000000000E+01 0. -1.
          1    1    1    2  502    0 -0.90115013273E+02  0.39339304518E+02 -0.63416730030E+03  0.64174485683E+03  0.00000000000E+00 0. -1.
          1    1    1    2  503    0  0.32927764113E+01 -0.19826921402E+02  0.13443307230E+03  0.13592718682E+03  0.00000000000E+00 0. -1.
<mgrwt>
<rscale>  0 0.44552648E+02</rscale>
<asrwt>0</asrwt>
<pdfrwt beam="1">  1        2 0.12868097E+00 0.20098487E+02</pdfrwt>
<pdfrwt beam="2">  1        2 0.11755525E+00 0.98760587E+02</pdfrwt>
<totfact> 0.22593831E+02</totfact>
</mgrwt>
</event>
<event>
13    1  0.1595792E-008  0.1243994E+03  0.7546771E-02  0.1442069E+00
          2   -1    0    0  502    0  0.00000000000E+00  0.00000000000E+00  0.18353209546E+04  0.18353209546E+04  0.00000000000E+00 0. -1.
          2   -1    0    0  503    0 -0.00000000000E+00 -0.00000000000E+00 -0.81491116896E+03  0.81491116896E+03  0.00000000000E+00 0. -1.
         24    2    1    2    0    0 -0.34428287786E+02  0.69380555671E+02 -0.95714859615E+01  0.10930247061E+03  0.76527434510E+02 0.  0.
         25    2    1    2    0    0 -0.49761562061E+02  0.60857404504E+02  0.64773190017E+03  0.66435159012E+03  0.12500633607E+03 0.  0.
         24    2    1    2    0    0 -0.49839461950E+02  0.66258109486E+02  0.80792861428E+03  0.81568713017E+03  0.75648790555E+02 0.  0.
        -11    1    3    3    0    0  0.14855945939E+02  0.46274742472E+02 -0.22190337841E+02  0.53427165507E+02  0.00000000000E+00 0.  1.
         12    1    3    3    0    0 -0.49284233726E+02  0.23105813198E+02  0.12618851880E+02  0.55875305102E+02  0.00000000000E+00 0. -1.
        -11    1    5    5    0    0  0.28125614709E+01 -0.15001565158E+02  0.12507657819E+03  0.12600439624E+03  0.00000000000E+00 0.  1.
         12    1    5    5    0    0 -0.52652023420E+02  0.81259674645E+02  0.68285203609E+03  0.68968273393E+03  0.00000000000E+00 0. -1.
          5    1    4    4  501    0 -0.90005652286E+02  0.42238397594E+02  0.50862164012E+03  0.51826939180E+03  0.47000000000E+01 0.  1.
         -5    1    4    4    0  501  0.40244090225E+02  0.18619006910E+02  0.13911026005E+03  0.14608219832E+03  0.47000000000E+01 0.  1.
          1    1    1    2  502    0  0.68528042958E+01 -0.19417605679E+02  0.30126015230E+03  0.30196305022E+03  0.00000000000E+00 0. -1.
          1    1    1    2  503    0  0.12717650750E+03 -0.17707846398E+03 -0.72693939516E+03  0.75892788241E+03  0.00000000000E+00 0. -1.
<mgrwt>
<rscale>  0 0.50611795E+02</rscale>
<asrwt>0</asrwt>
<pdfrwt beam="1">  1        2 0.26990014E+00 0.20591366E+02</pdfrwt>
<pdfrwt beam="2">  1        2 0.11983988E+00 0.12439941E+03</pdfrwt>
<totfact> 0.76311334E+01</totfact>
</mgrwt>
</event>
<event>
13    1  0.1595792E-008  0.8750807E+02  0.7546771E-02  0.1313270E+00
          2   -1    0    0  503    0  0.00000000000E+00  0.00000000000E+00  0.33838017769E+03  0.33838017769E+03  0.00000000000E+00 0. -1.
          2   -1    0    0  502    0 -0.00000000000E+00 -0.00000000000E+00 -0.99445665065E+03  0.99445665065E+03  0.00000000000E+00 0. -1.
         24    2    1    2    0    0  0.77006304508E+02  0.11440368020E+03 -0.93562495800E+01  0.15975635028E+03  0.80102303770E+02 0.  0.
         25    2    1    2    0    0 -0.11369548285E+03 -0.54812626857E+02 -0.46681611958E+02  0.18366975217E+03  0.12499727231E+03 0.  0.
         24    2    1    2    0    0 -0.38242292683E+02 -0.70030699812E+02 -0.49754316481E+02  0.12372585415E+03  0.80410342058E+02 0.  0.
        -11    1    5    5    0    0  0.81210170565E+01  0.14578545372E+02 -0.54047257847E+01  0.17541264607E+02  0.00000000000E+00 0.  1.
         12    1    5    5    0    0 -0.46363309740E+02 -0.84609245184E+02 -0.44349590696E+02  0.10618458954E+03  0.00000000000E+00 0. -1.
        -11    1    3    3    0    0 -0.11791604251E+02 -0.31007510140E+01 -0.10957392622E+01  0.12241618855E+02  0.00000000000E+00 0.  1.
         12    1    3    3    0    0  0.88797908759E+02  0.11750443122E+03 -0.82605103178E+01  0.14751473142E+03  0.00000000000E+00 0. -1.
          5    1    4    4  501    0 -0.58746754773E+02 -0.81383737619E+01 -0.83541970191E+02  0.10256103113E+03  0.47000000000E+01 0.  1.
         -5    1    4    4    0  501 -0.54948728079E+02 -0.46674253095E+02  0.36860358234E+02  0.81108721039E+02  0.47000000000E+01 0.  1.
          1    1    1    2  502    0  0.41927900481E+02 -0.73005755389E+02 -0.69245997905E+03  0.69755903818E+03  0.00000000000E+00 0. -1.
          1    1    1    2  503    0  0.33003570546E+02  0.83445401856E+02  0.14217568411E+03  0.16812583356E+03  0.00000000000E+00 0. -1.
<mgrwt>
<rscale>  0 0.85832498E+02</rscale>
<asrwt>0</asrwt>
<pdfrwt beam="1">  1        2 0.49761791E-01 0.87508071E+02</pdfrwt>
<pdfrwt beam="2">  1        2 0.14624362E+00 0.84189009E+02</pdfrwt>
<totfact> 0.46483485E+02</totfact>
</mgrwt>
</event>
<event>
13    1  0.1595792E-008  0.1005369E+03  0.7546771E-02  0.1301701E+00
          2   -1    0    0  503    0  0.00000000000E+00  0.00000000000E+00  0.50680987682E+03  0.50680987682E+03  0.00000000000E+00 0. -1.
          2   -1    0    0  502    0 -0.00000000000E+00 -0.00000000000E+00 -0.92841650180E+03  0.92841650180E+03  0.00000000000E+00 0. -1.
         24    2    1    2    0    0  0.70154464853E+02 -0.60546247333E+02 -0.90815944028E+02  0.15299193428E+03  0.81064784333E+02 0.  0.
         25    2    1    2    0    0 -0.54577622692E+02  0.42282627364E+02 -0.12170349780E+03  0.18762390194E+03  0.12499779889E+03 0.  0.
         24    2    1    2    0    0  0.14548876082E+03  0.41874279914E+01  0.12185758260E+03  0.21348071894E+03  0.97674115523E+02 0.  0.
        -13    1    5    5    0    0  0.45062041877E+02 -0.38851006122E+01  0.10089993570E+03  0.11057340842E+03  0.00000000000E+00 0.  1.
         14    1    5    5    0    0  0.10042671894E+03  0.80725286036E+01  0.20957646907E+02  0.10290731053E+03  0.00000000000E+00 0. -1.
        -13    1    3    3    0    0  0.33119708958E+01  0.15057007817E+02 -0.33642357801E+02  0.37006632838E+02  0.00000000000E+00 0.  1.
         14    1    3    3    0    0  0.66842493957E+02 -0.75603255150E+02 -0.57173586227E+02  0.11598530144E+03  0.00000000000E+00 0. -1.
          5    1    4    4  501    0 -0.73910658655E+02  0.38921531730E+02 -0.22845464121E+02  0.86727598409E+02  0.47000000000E+01 0. -1.
         -5    1    4    4    0  501  0.19333035963E+02  0.33610956339E+01 -0.98858033682E+02  0.10089630353E+03  0.47000000000E+01 0. -1.
          1    1    1    2  502    0 -0.87193319013E+02  0.48320404890E+02 -0.59577897134E+03  0.60406135376E+03  0.00000000000E+00 0. -1.
          1    1    1    2  503    0 -0.73872283968E+02 -0.34244212912E+02  0.26483420559E+03  0.27706846971E+03  0.00000000000E+00 0. -1.
<mgrwt>
<rscale>  0 0.90476848E+02</rscale>
<asrwt>0</asrwt>
<pdfrwt beam="1">  1        2 0.74530865E-01 0.81423464E+02</pdfrwt>
<pdfrwt beam="2">  1        2 0.13653184E+00 0.10053687E+03</pdfrwt>
<totfact> 0.32958739E+02</totfact>
</mgrwt>
</event>
<event>
13    1  0.1595792E-008  0.6892457E+02  0.7546771E-02  0.1474796E+00
          2   -1    0    0  502    0  0.00000000000E+00  0.00000000000E+00  0.40024910749E+04  0.40024910749E+04  0.00000000000E+00 0. -1.
          2   -1    0    0  503    0 -0.00000000000E+00 -0.00000000000E+00 -0.88320369707E+03  0.88320369707E+03  0.00000000000E+00 0. -1.
         24    2    1    2    0    0 -0.92519347640E+02  0.36730487461E+03 -0.34591004580E+03  0.51922626669E+03  0.80432926329E+02 0.  0.
         25    2    1    2    0    0 -0.39552064185E+03 -0.88602324603E+02  0.61962581754E+02  0.42866237486E+03  0.12500048013E+03 0.  0.
         24    2    1    2    0    0  0.51030570991E+03 -0.36359967360E+03  0.27191865114E+04  0.27924390637E+04  0.10547037856E+03 0.  0.
        -11    1    3    3    0    0 -0.28687801058E+02  0.21617383884E+03 -0.15519015962E+03  0.26765295472E+03  0.00000000000E+00 0.  1.
         12    1    3    3    0    0 -0.63831546582E+02  0.15113103577E+03 -0.19071988618E+03  0.25157331197E+03  0.00000000000E+00 0. -1.
        -13    1    5    5    0    0  0.32554098052E+03 -0.16831450765E+03  0.15914857785E+04  0.16331361507E+04  0.00000000000E+00 0.  1.
         14    1    5    5    0    0  0.18476472939E+03 -0.19528516596E+03  0.11277007329E+04  0.11593029131E+04  0.00000000000E+00 0. -1.
          5    1    4    4  501    0 -0.39571261235E+03 -0.90320732868E+02  0.42003002198E+02  0.40808411946E+03  0.47000000000E+01 0. -1.
         -5    1    4    4    0  501  0.19197050109E+00  0.17184082649E+01  0.19959579556E+02  0.20578255409E+02  0.47000000000E+01 0. -1.
          1    1    1    2  502    0 -0.24505537375E+02  0.16034345949E+02  0.90932157011E+03  0.90979302013E+03  0.00000000000E+00 0. -1.
          1    1    1    2  503    0  0.22398169495E+01  0.68862777647E+02 -0.22527323961E+03  0.23557404655E+03  0.00000000000E+00 0. -1.
<mgrwt>
<rscale>  0 0.44927365E+02</rscale>
<asrwt>0</asrwt>
<pdfrwt beam="1">  1        2 0.58860162E+00 0.29285177E+02</pdfrwt>
<pdfrwt beam="2">  1        2 0.12988290E+00 0.68924566E+02</pdfrwt>
<totfact> 0.52930747E+00</totfact>
</mgrwt>
</event>
<event>
13    1  0.1595792E-008  0.6162196E+02  0.7546771E-02  0.1585240E+00
          2   -1    0    0  503    0  0.00000000000E+00  0.00000000000E+00  0.24120966226E+04  0.24120966226E+04  0.00000000000E+00 0. -1.
          2   -1    0    0  502    0 -0.00000000000E+00 -0.00000000000E+00 -0.16430901830E+04  0.16430901830E+04  0.00000000000E+00 0. -1.
         24    2    1    2    0    0  0.31232467620E+02 -0.75368818253E+02 -0.68818076172E+03  0.69784736947E+03  0.82111293174E+02 0.  0.
         25    2    1    2    0    0  0.12478400832E+02  0.67597403123E+02  0.30541661851E+01  0.14268708455E+03  0.12500062708E+03 0.  0.
         24    2    1    2    0    0  0.37293590395E+02 -0.97614535825E+01  0.83029762005E+02  0.10541936734E+03  0.52280051362E+02 0.  0.
        -11    1    5    5    0    0  0.48752897809E+02 -0.16599926336E+02  0.63379062306E+02  0.81665832132E+02  0.00000000000E+00 0.  1.
         12    1    5    5    0    0 -0.11459307414E+02  0.68384727535E+01  0.19650699699E+02  0.23753535204E+02  0.00000000000E+00 0. -1.
        -13    1    3    3    0    0  0.26987425626E+02 -0.85386706028E+01 -0.62714074497E+02  0.68806142005E+02  0.00000000000E+00 0.  1.
         14    1    3    3    0    0  0.42450419936E+01 -0.66830147650E+02 -0.62546668723E+03  0.62904122746E+03  0.00000000000E+00 0. -1.
          5    1    4    4  501    0  0.23707520288E+02  0.96890799196E+02 -0.22011908619E+02  0.10225696851E+03  0.47000000000E+01 0.  1.
         -5    1    4    4    0  501 -0.11229119456E+02 -0.29293396073E+02  0.25066074804E+02  0.40430116044E+02  0.47000000000E+01 0.  1.
          1    1    1    2  502    0  0.13609629386E+02  0.80106588219E+01 -0.86798386651E+03  0.86812751667E+03  0.00000000000E+00 0. -1.
          1    1    1    2  503    0 -0.94614088233E+02  0.95222098905E+01  0.22390871396E+04  0.22411054676E+04  0.00000000000E+00 0. -1.
<mgrwt>
<rscale>  0 0.31195264E+02</rscale>
<asrwt>0</asrwt>
<pdfrwt beam="1">  1        2 0.35472009E+00 0.61621959E+02</pdfrwt>
<pdfrwt beam="2">  1        2 0.24163091E+00 0.15792171E+02</pdfrwt>
<totfact> 0.15530702E+01</totfact>
</mgrwt>
</event>
<event>
13    1  0.1595792E-008  0.4299700E+02  0.7546771E-02  0.1538360E+00
          2   -1    0    0  503    0  0.00000000000E+00  0.00000000000E+00  0.25439731681E+04  0.25439731681E+04  0.00000000000E+00 0. -1.
          2   -1    0    0  502    0 -0.00000000000E+00 -0.00000000000E+00 -0.38201519963E+04  0.38201519963E+04  0.00000000000E+00 0. -1.
         24    2    1    2    0    0 -0.45034564872E+02 -0.75711406917E+03 -0.16726897814E+04  0.18383815792E+04  0.80659160032E+02 0.  0.
         25    2    1    2    0    0  0.39130097944E+03  0.59905480253E+03  0.30496990155E+03  0.78779121468E+03  0.12500097647E+03 0.  0.
         24    2    1    2    0    0 -0.35550907939E+03  0.14851314256E+03  0.10575397302E+04  0.11266956496E+04  0.51087637788E+02 0.  0.
        -13    1    5    5    0    0 -0.11334119835E+03  0.70557707164E+02  0.33156893504E+03  0.35743891222E+03  0.00000000000E+00 0.  1.
         14    1    5    5    0    0 -0.24216788103E+03  0.77955435398E+02  0.72597079518E+03  0.76925673735E+03  0.00000000000E+00 0. -1.
        -13    1    3    3    0    0 -0.41312460078E+02 -0.37866944899E+03 -0.75296980783E+03  0.84383695253E+03  0.00000000000E+00 0.  1.
         14    1    3    3    0    0 -0.37221047941E+01 -0.37844462018E+03 -0.91971997358E+03  0.99454462666E+03  0.00000000000E+00 0. -1.
          5    1    4    4  501    0  0.10605251034E+03  0.99423716530E+02  0.23658107076E+02  0.14735673174E+03  0.47000000000E+01 0.  1.
         -5    1    4    4    0  501  0.28524846910E+03  0.49963108600E+03  0.28131179448E+03  0.64043448294E+03  0.47000000000E+01 0.  1.
          1    1    1    2  502    0  0.37247164536E+02  0.21489081198E+02 -0.17880874296E+04  0.17886044246E+04  0.00000000000E+00 0. -1.
          1    1    1    2  503    0 -0.28004499717E+02 -0.11942957127E+02  0.82208875101E+03  0.82265229640E+03  0.00000000000E+00 0. -1.
<mgrwt>
<rscale>  0 0.36180591E+02</rscale>
<asrwt>0</asrwt>
<pdfrwt beam="1">  1        2 0.37411371E+00 0.30444806E+02</pdfrwt>
<pdfrwt beam="2">  1        2 0.56178705E+00 0.42996995E+02</pdfrwt>
<totfact> 0.10584668E+00</totfact>
</mgrwt>
</event>
<event>
13    1  0.1595792E-008  0.7691328E+02  0.7546771E-02  0.1446803E+00
          2   -1    0    0  503    0  0.00000000000E+00  0.00000000000E+00  0.31816714767E+04  0.31816714767E+04  0.00000000000E+00 0. -1.
          2   -1    0    0  502    0 -0.00000000000E+00 -0.00000000000E+00 -0.37536724435E+04  0.37536724435E+04  0.00000000000E+00 0. -1.
         24    2    1    2    0    0 -0.14935713798E+03  0.12514633335E+03 -0.13751798591E+04  0.13905857401E+04  0.68116783785E+02 0.  0.
         25    2    1    2    0    0  0.35007353289E+03 -0.59492837734E+03 -0.14743104314E+04  0.16327037293E+04  0.12505585570E+03 0.  0.
         24    2    1    2    0    0 -0.28922512262E+03  0.40817810845E+03 -0.25586531863E+03  0.56769410785E+03  0.80925886085E+02 0.  0.
        -11    1    5    5    0    0 -0.56562191205E+02  0.64022055167E+02 -0.78409173309E+02  0.11595733474E+03  0.00000000000E+00 0.  1.
         12    1    5    5    0    0 -0.23266293142E+03  0.34415605328E+03 -0.17745614532E+03  0.45173677311E+03  0.00000000000E+00 0. -1.
        -13    1    3    3    0    0 -0.94328186897E+02  0.41794276633E+02 -0.57330340438E+03  0.58251297142E+03  0.00000000000E+00 0.  1.
         14    1    3    3    0    0 -0.55028951080E+02  0.83352056714E+02 -0.80187645469E+03  0.80807276863E+03  0.00000000000E+00 0. -1.
          5    1    4    4  501    0  0.22673674161E+03 -0.26263609774E+03 -0.73853322591E+03  0.81599061613E+03  0.47000000000E+01 0. -1.
         -5    1    4    4    0  501  0.12333679128E+03 -0.33229227960E+03 -0.73577720547E+03  0.81671311318E+03  0.47000000000E+01 0. -1.
          1    1    1    2  502    0  0.21441998828E+02  0.23960840525E+02 -0.40436137478E+03  0.40563777266E+03  0.00000000000E+00 0. -1.
          1    1    1    2  503    0  0.67066728885E+02  0.37643095020E+02  0.29377160171E+04  0.29387225704E+04  0.00000000000E+00 0. -1.
<mgrwt>
<rscale>  0 0.49729984E+02</rscale>
<asrwt>0</asrwt>
<pdfrwt beam="1">  1        2 0.46789287E+00 0.76913277E+02</pdfrwt>
<pdfrwt beam="2">  1        2 0.55201065E+00 0.32154023E+02</pdfrwt>
<totfact> 0.50782724E-01</totfact>
</mgrwt>
</event>
<event>
13    1  0.1595792E-008  0.8934410E+02  0.7546771E-02  0.1457111E+00
          2   -1    0    0  503    0  0.00000000000E+00  0.00000000000E+00  0.37934974037E+03  0.37934974037E+03  0.00000000000E+00 0. -1.
          2   -1    0    0  502    0 -0.00000000000E+00 -0.00000000000E+00 -0.44230209611E+03  0.44230209611E+03  0.00000000000E+00 0. -1.
         24    2    1    2    0    0 -0.98116079918E+00 -0.20321274406E+02 -0.31464581481E+02  0.86713341119E+02  0.78200171165E+02 0.  0.
         25    2    1    2    0    0  0.87032442114E+02 -0.85836962716E+02  0.77382503703E+01  0.17500977124E+03  0.12500363740E+03 0.  0.
         24    2    1    2    0    0  0.23762254683E+02  0.46075494850E+02  0.61979820068E+02  0.11390426117E+03  0.80281296978E+02 0.  0.
        -11    1    5    5    0    0 -0.98956693460E+01  0.21904189737E+01 -0.15615528801E+02  0.18616308625E+02  0.00000000000E+00 0.  1.
         12    1    5    5    0    0  0.33657924029E+02  0.43885075876E+02  0.77595348869E+02  0.95287952548E+02  0.00000000000E+00 0. -1.
        -13    1    3    3    0    0 -0.55001666378E+01 -0.40448341533E+02  0.85392241344E+01  0.41704178623E+02  0.00000000000E+00 0.  1.
         14    1    3    3    0    0  0.45190058387E+01  0.20127067127E+02 -0.40003805616E+02  0.45009162496E+02  0.00000000000E+00 0. -1.
          5    1    4    4  501    0  0.95513440909E+02 -0.10823013588E+02 -0.11607360241E+02  0.96936968331E+02  0.47000000000E+01 0.  1.
         -5    1    4    4    0  501 -0.84809987950E+01 -0.75013949128E+02  0.19345610612E+02  0.78072802911E+02  0.47000000000E+01 0.  1.
          1    1    1    2  502    0 -0.88367555518E+02  0.45990738311E+02 -0.26350608248E+03  0.28170805524E+03  0.00000000000E+00 0. -1.
          1    1    1    2  503    0 -0.21445980480E+02  0.14092003960E+02  0.16230023779E+03  0.16431640771E+03  0.00000000000E+00 0. -1.
<mgrwt>
<rscale>  0 0.47882222E+02</rscale>
<asrwt>0</asrwt>
<pdfrwt beam="1">  1        2 0.55786727E-01 0.25661540E+02</pdfrwt>
<pdfrwt beam="2">  1        2 0.65044426E-01 0.89344098E+02</pdfrwt>
<totfact> 0.10398637E+03</totfact>
</mgrwt>
</event>
<event>
13    1  0.1595792E-008  0.1641758E+03  0.7546771E-02  0.1231266E+00
          2   -1    0    0  502    0  0.00000000000E+00  0.00000000000E+00  0.40360953985E+04  0.40360953985E+04  0.00000000000E+00 0. -1.
          2   -1    0    0  503    0 -0.00000000000E+00 -0.00000000000E+00 -0.74605703441E+03  0.74605703441E+03  0.00000000000E+00 0. -1.
         24    2    1    2    0    0 -0.25670632191E+02 -0.85962688329E+00  0.28924101715E+02  0.89256476551E+02  0.80438763236E+02 0.  0.
         25    2    1    2    0    0  0.18599205972E+03  0.28457642809E+03  0.25799713360E+03  0.44470359540E+03  0.12498790787E+03 0.  0.
         24    2    1    2    0    0 -0.25052610123E+02 -0.83002675532E+02  0.91221456837E+03  0.91981765681E+03  0.80075124787E+02 0.  0.
        -11    1    3    3    0    0  0.27848713903E+02  0.10413452493E+02  0.10972352907E+02  0.31692008255E+02  0.00000000000E+00 0.  1.
         12    1    3    3    0    0 -0.53519346094E+02 -0.11273079376E+02  0.17951748808E+02  0.57564468297E+02  0.00000000000E+00 0. -1.
        -13    1    5    5    0    0  0.94116261388E+01 -0.72788867657E+02  0.75436349322E+03  0.75792550944E+03  0.00000000000E+00 0.  1.
         14    1    5    5    0    0 -0.34464236262E+02 -0.10213807875E+02  0.15785107515E+03  0.16189214737E+03  0.00000000000E+00 0. -1.
          5    1    4    4  501    0  0.16915194265E+03  0.29587746180E+03  0.23708229314E+03  0.41519387739E+03  0.47000000000E+01 0. -1.
         -5    1    4    4    0  501  0.16840117071E+02 -0.11301033704E+02  0.20914840460E+02  0.29509718013E+02  0.47000000000E+01 0. -1.
          1    1    1    2  502    0 -0.10648472357E+03 -0.97236799268E+02  0.27030411245E+04  0.27068847985E+04  0.00000000000E+00 0. -1.
          1    1    1    2  503    0 -0.28784093832E+02 -0.10347732641E+03 -0.61213856412E+03  0.62148990564E+03  0.00000000000E+00 0. -1.
<mgrwt>
<rscale>  0 0.12746521E+03</rscale>
<asrwt>0</asrwt>
<pdfrwt beam="1">  1        2 0.59354343E+00 0.16417583E+03</pdfrwt>
<pdfrwt beam="2">  1        2 0.10971427E+00 0.98963283E+02</pdfrwt>
<totfact> 0.41635301E+00</totfact>
</mgrwt>
</event>
<event>
13    1  0.1595792E-008  0.1046248E+03  0.7546771E-02  0.1354224E+00
          2   -1    0    0  502    0  0.00000000000E+00  0.00000000000E+00  0.32942646263E+04  0.32942646263E+04  0.00000000000E+00 0. -1.
          2   -1    0    0  503    0 -0.00000000000E+00 -0.00000000000E+00 -0.11098415730E+04  0.11098415730E+04  0.00000000000E+00 0. -1.
         24    2    1    2    0    0  0.49117589277E+03  0.66182039929E+02 -0.78236251679E+02  0.51155741598E+03  0.99680784142E+02 0.  0.
         25    2    1    2    0    0 -0.84252330265E+03 -0.11872514345E+04  0.10387074118E+04  0.17927493195E+04  0.12500220395E+03 0.  0.
         24    2    1    2    0    0  0.41432390315E+03  0.98639864774E+03  0.75940665462E+03  0.13145079670E+04  0.81155031562E+02 0.  0.
        -11    1    5    5    0    0  0.13013212355E+03  0.27588635595E+03  0.17533026777E+03  0.35183569145E+03  0.00000000000E+00 0.  1.
         12    1    5    5    0    0  0.28419177960E+03  0.71051229178E+03  0.58407638684E+03  0.96267227551E+03  0.00000000000E+00 0. -1.
        -11    1    3    3    0    0  0.11014116256E+03  0.17038614889E+01  0.21973370535E+02  0.11232456475E+03  0.00000000000E+00 0.  1.
         12    1    3    3    0    0  0.38103473021E+03  0.64478178440E+02 -0.10020962221E+03  0.39923285123E+03  0.00000000000E+00 0. -1.
          5    1    4    4  501    0 -0.68668934233E+02 -0.10643378117E+03  0.13603653492E+03  0.18593440009E+03  0.47000000000E+01 0. -1.
         -5    1    4    4    0  501 -0.77385436841E+03 -0.10808176533E+04  0.90267087689E+03  0.16068149194E+04  0.47000000000E+01 0. -1.
          1    1    1    2  502    0 -0.27266195318E+02  0.10080905654E+03  0.61664658655E+03  0.62542699333E+03  0.00000000000E+00 0. -1.
          1    1    1    2  503    0 -0.35710297948E+02  0.33861690295E+02 -0.15210134796E+03  0.15986450357E+03  0.00000000000E+00 0. -1.
<mgrwt>
<rscale>  0 0.71755244E+02</rscale>
<asrwt>0</asrwt>
<pdfrwt beam="1">  1        2 0.48445068E+00 0.10462480E+03</pdfrwt>
<pdfrwt beam="2">  1        2 0.16321200E+00 0.49212188E+02</pdfrwt>
<totfact> 0.81827433E+00</totfact>
</mgrwt>
</event>
<event>
13    1  0.1595792E-008  0.7995977E+02  0.7546771E-02  0.1421983E+00
          2   -1    0    0  503    0  0.00000000000E+00  0.00000000000E+00  0.26141728903E+04  0.26141728903E+04  0.00000000000E+00 0. -1.
         -3   -1    0    0    0  501 -0.00000000000E+00 -0.00000000000E+00 -0.14396898247E+04  0.14396898247E+04  0.00000000000E+00 0.  1.
         24    2    1    2    0    0  0.31685030830E+03  0.15973804264E+03  0.43478215708E+02  0.37376827250E+03  0.10909631593E+03 0.  0.
         25    2    1    2    0    0 -0.19940329962E+03 -0.11981410506E+02  0.14388870122E+03  0.27610306115E+03  0.12499484767E+03 0.  0.
         24    2    1    2    0    0 -0.12268222932E+03 -0.42020013577E+02  0.46200283485E+03  0.48678846822E+03  0.81852198846E+02 0.  0.
        -13    1    5    5    0    0 -0.48268674579E+02 -0.44825653185E+02  0.12119421749E+03  0.13793927099E+03  0.00000000000E+00 0.  1.
         14    1    5    5    0    0 -0.74413554736E+02  0.28056396083E+01  0.34080861736E+03  0.34884919723E+03  0.00000000000E+00 0. -1.
        -13    1    3    3    0    0  0.12464662132E+02  0.18342557098E+02  0.30737660914E+02  0.37902783558E+02  0.00000000000E+00 0.  1.
         14    1    3    3    0    0  0.30438564617E+03  0.14139548554E+03  0.12740554794E+02  0.33586548894E+03  0.00000000000E+00 0. -1.
          5    1    4    4  502    0  0.11670501094E+02 -0.20304469183E+02  0.20121671469E+02  0.31232094507E+02  0.47000000000E+01 0. -1.
         -5    1    4    4    0  502 -0.21107380072E+03  0.83230586774E+01  0.12376702975E+03  0.24487096665E+03  0.47000000000E+01 0. -1.
          1    1    1    2  503    0  0.24450325805E+02 -0.28152981061E+02  0.17196204461E+04  0.17200246764E+04  0.00000000000E+00 0. -1.
         -4    1    1    2    0  501 -0.19215105170E+02 -0.77583637493E+02 -0.11945071324E+04  0.11971782367E+04  0.00000000000E+00 0.  1.
<mgrwt>
<rscale>  0 0.54603614E+02</rscale>
<asrwt>0</asrwt>
<pdfrwt beam="1">  1        2 0.38443719E+00 0.37288185E+02</pdfrwt>
<pdfrwt beam="2">  1       -3 0.21171909E+00 0.79959768E+02</pdfrwt>
<totfact> 0.46182730E-01</totfact>
</mgrwt>
</event>
<event>
13    1  0.1595792E-008  0.9489308E+02  0.7546771E-02  0.1424204E+00
          2   -1    0    0  503    0  0.00000000000E+00  0.00000000000E+00  0.50848985559E+03  0.50848985559E+03  0.00000000000E+00 0. -1.
          2   -1    0    0  502    0 -0.00000000000E+00 -0.00000000000E+00 -0.44445371959E+04  0.44445371959E+04  0.00000000000E+00 0. -1.
         24    2    1    2    0    0  0.83462664026E+02 -0.66919875644E+00 -0.26047929596E+03  0.28505300238E+03  0.80245164521E+02 0.  0.
         25    2    1    2    0    0 -0.18068302583E+03 -0.11023000297E+03 -0.61758412970E+03  0.66470540292E+03  0.12500442408E+03 0.  0.
         24    2    1    2    0    0  0.28696408192E+02  0.35151382707E+02 -0.10966190175E+02  0.90298388341E+02  0.77294489199E+02 0.  0.
        -11    1    3    3    0    0  0.88812016086E+02 -0.20771118750E+02 -0.17820746231E+03  0.20019219065E+03  0.00000000000E+00 0.  1.
         12    1    3    3    0    0 -0.53493520598E+01  0.20101919994E+02 -0.82271833654E+02  0.84860811732E+02  0.00000000000E+00 0. -1.
        -13    1    5    5    0    0  0.38595590200E+02  0.41562263532E+02  0.17605314281E+02  0.59388453623E+02  0.00000000000E+00 0.  1.
         14    1    5    5    0    0 -0.98991820077E+01 -0.64108808250E+01 -0.28571504456E+02  0.30909934718E+02  0.00000000000E+00 0. -1.
          5    1    4    4  501    0 -0.16025285209E+01 -0.30535849925E+02 -0.22781005525E+02  0.38419662167E+02  0.47000000000E+01 0.  1.
         -5    1    4    4    0  501 -0.17908049731E+03 -0.79694153048E+02 -0.59480312417E+03  0.62628574076E+03  0.47000000000E+01 0.  1.
          1    1    1    2  502    0  0.39214446067E+02  0.85502907436E+02 -0.34788064504E+04  0.34800779933E+04  0.00000000000E+00 0. -1.
          1    1    1    2  503    0  0.29309507546E+02 -0.97550884138E+01  0.43178872587E+03  0.43289226463E+03  0.00000000000E+00 0. -1.
<mgrwt>
<rscale>  0 0.54141235E+02</rscale>
<asrwt>0</asrwt>
<pdfrwt beam="1">  1        2 0.74777915E-01 0.30890273E+02</pdfrwt>
<pdfrwt beam="2">  1        2 0.65360846E+00 0.94893084E+02</pdfrwt>
<totfact> 0.36702823E+00</totfact>
</mgrwt>
</event>
<event>
13    1  0.1595792E-008  0.1183985E+03  0.7546771E-02  0.1293116E+00
          2   -1    0    0  502    0  0.00000000000E+00  0.00000000000E+00  0.31366392342E+04  0.31366392342E+04  0.00000000000E+00 0. -1.
          2   -1    0    0  503    0 -0.00000000000E+00 -0.00000000000E+00 -0.16309334109E+04  0.16309334109E+04  0.00000000000E+00 0. -1.
         24    2    1    2    0    0 -0.13935589682E+03  0.26197270175E+01 -0.53852946210E+03  0.56223682483E+03  0.81666006987E+02 0.  0.
         25    2    1    2    0    0 -0.15974286705E+03 -0.52682943106E+01 -0.98165431674E+02  0.22538893870E+03  0.12497272989E+03 0.  0.
         24    2    1    2    0    0  0.76679668031E+02  0.78688984638E+02  0.16198978589E+02  0.13624100730E+03  0.78914367315E+02 0.  0.
        -13    1    3    3    0    0 -0.10140418787E+03  0.31772981099E+02 -0.28361929342E+03  0.30287329899E+03  0.00000000000E+00 0.  1.
         14    1    3    3    0    0 -0.37951708951E+02 -0.29153254082E+02 -0.25491016868E+03  0.25936352583E+03  0.00000000000E+00 0. -1.
        -13    1    5    5    0    0  0.78759834978E+02  0.34232827058E+02  0.27770823629E+02  0.90256394229E+02  0.00000000000E+00 0.  1.
         14    1    5    5    0    0 -0.20801669469E+01  0.44456157579E+02 -0.11571845040E+02  0.45984613067E+02  0.00000000000E+00 0. -1.
          5    1    4    4  501    0 -0.12075189656E+03 -0.86648910167E+01 -0.16841035573E+01  0.12116528820E+03  0.47000000000E+01 0. -1.
         -5    1    4    4    0  501 -0.38990970487E+02  0.33965967061E+01 -0.96481328116E+02  0.10422365050E+03  0.47000000000E+01 0. -1.
          1    1    1    2  502    0  0.74734002768E+02  0.43065587170E+01  0.29762497122E+04  0.29771909691E+04  0.00000000000E+00 0. -1.
          1    1    1    2  503    0  0.14768509308E+03 -0.80346976062E+02 -0.85004797364E+03  0.86651490510E+03  0.00000000000E+00 0. -1.
<mgrwt>
<rscale>  0 0.94143878E+02</rscale>
<asrwt>0</asrwt>
<pdfrwt beam="1">  1        2 0.46127048E+00 0.74857983E+02</pdfrwt>
<pdfrwt beam="2">  1        2 0.23984315E+00 0.11839846E+03</pdfrwt>
<totfact> 0.54307205E+00</totfact>
</mgrwt>
</event>
<event>
13    1  0.1595792E-008  0.6992921E+02  0.7546771E-02  0.1396438E+00
         -1   -1    0    0    0  501 -0.00000000000E+00  0.00000000000E+00  0.72559815258E+03  0.72559815258E+03  0.00000000000E+00 0.  1.
          4   -1    0    0  503    0  0.00000000000E+00 -0.00000000000E+00 -0.56181583573E+03  0.56181583573E+03  0.00000000000E+00 0. -1.
         24    2    1    2    0    0 -0.85856752664E+02  0.44140359397E+02 -0.36153033891E+02  0.12984004984E+03  0.78940758654E+02 0.  0.
         25    2    1    2    0    0 -0.10462423682E+02 -0.11072589453E+03 -0.10695636353E+03  0.19857665472E+03  0.12499335212E+03 0.  0.
         24    2    1    2    0    0 -0.19735725390E+02  0.61574089771E+02 -0.18847233521E+03  0.21441940075E+03  0.79202215171E+02 0.  0.
        -11    1    3    3    0    0 -0.56266335914E+02  0.64972344537E+01 -0.54463516286E+02  0.78577281825E+02  0.00000000000E+00 0.  1.
         12    1    3    3    0    0 -0.29590416750E+02  0.37643124943E+02  0.18310482395E+02  0.51262768014E+02  0.00000000000E+00 0. -1.
        -13    1    5    5    0    0  0.16730106157E+02  0.12403669276E+02 -0.12313849909E+03  0.12488729888E+03  0.00000000000E+00 0.  1.
         14    1    5    5    0    0 -0.36465831547E+02  0.49170420495E+02 -0.65333836126E+02  0.89532101868E+02  0.00000000000E+00 0. -1.
          5    1    4    4  502    0 -0.47123531025E+02 -0.10861375341E+03 -0.45689241467E+02  0.12699280056E+03  0.47000000000E+01 0. -1.
         -5    1    4    4    0  502  0.36661107343E+02 -0.21121411105E+01 -0.61267122060E+02  0.71583854166E+02  0.47000000000E+01 0. -1.
          3    1    1    2  503    0  0.47985624348E+02  0.20175127083E+02 -0.11710402919E+03  0.12815229045E+03  0.00000000000E+00 0. -1.
         -2    1    1    2    0  501  0.68069277388E+02 -0.15163681726E+02  0.61246807867E+03  0.61642559256E+03  0.00000000000E+00 0.  1.
<mgrwt>
<rscale>  0 0.60333408E+02</rscale>
<asrwt>0</asrwt>
<pdfrwt beam="2">  1        4 0.82619976E-01 0.52054355E+02</pdfrwt>
<pdfrwt beam="1">  1       -1 0.10670561E+00 0.69929215E+02</pdfrwt>
<totfact> 0.44379231E+00</totfact>
</mgrwt>
</event>
<event>
13    1  0.1595792E-008  0.7953673E+02  0.7546771E-02  0.1364404E+00
          2   -1    0    0  502    0  0.00000000000E+00  0.00000000000E+00  0.93749410687E+03  0.93749410687E+03  0.00000000000E+00 0. -1.
          2   -1    0    0  503    0 -0.00000000000E+00 -0.00000000000E+00 -0.14772328632E+04  0.14772328632E+04  0.00000000000E+00 0. -1.
         24    2    1    2    0    0  0.11243846777E+03 -0.92619835831E+02 -0.46895060310E+03  0.49741215148E+03  0.79267504498E+02 0.  0.
         25    2    1    2    0    0  0.14673029817E+03  0.26096336598E+03  0.26561937874E+03  0.41929769615E+03  0.12500097940E+03 0.  0.
         24    2    1    2    0    0 -0.18574674223E+03 -0.50809959877E+02  0.18940072163E+03  0.28039540242E+03  0.75269144216E+02 0.  0.
        -13    1    5    5    0    0 -0.22127087921E+02  0.18673609441E+02  0.24583143382E+02  0.37982135906E+02  0.00000000000E+00 0.  1.
         14    1    5    5    0    0 -0.16361965431E+03 -0.69483569318E+02  0.16481757825E+03  0.24241326651E+03  0.00000000000E+00 0. -1.
        -13    1    3    3    0    0  0.44165098422E+02  0.67893112012E+01 -0.10929551343E+03  0.11807692375E+03  0.00000000000E+00 0.  1.
         14    1    3    3    0    0  0.68273369345E+02 -0.99409147032E+02 -0.35965508967E+03  0.37933522773E+03  0.00000000000E+00 0. -1.
          5    1    4    4  501    0  0.12988071144E+03  0.26469707123E+03  0.21311978174E+03  0.36383467412E+03  0.47000000000E+01 0. -1.
         -5    1    4    4    0  501  0.16849586738E+02 -0.37337052503E+01  0.52499597000E+02  0.55463022035E+02  0.47000000000E+01 0. -1.
          1    1    1    2  502    0 -0.34522155808E+02 -0.48365397350E+02  0.34152993858E+03  0.34666077056E+03  0.00000000000E+00 0. -1.
          1    1    1    2  503    0 -0.38899867903E+02 -0.69168172922E+02 -0.86733819214E+03  0.87096094942E+03  0.00000000000E+00 0. -1.
<mgrwt>
<rscale>  0 0.68747674E+02</rscale>
<asrwt>0</asrwt>
<pdfrwt beam="1">  1        2 0.13786678E+00 0.59422142E+02</pdfrwt>
<pdfrwt beam="2">  1        2 0.21724013E+00 0.79536727E+02</pdfrwt>
<totfact> 0.85186568E+01</totfact>
</mgrwt>
</event>
<event>
13    1  0.1595792E-008  0.1112826E+03  0.7546771E-02  0.1348342E+00
          2   -1    0    0  502    0  0.00000000000E+00  0.00000000000E+00  0.23511323452E+04  0.23511323452E+04  0.00000000000E+00 0. -1.
          2   -1    0    0  503    0 -0.00000000000E+00 -0.00000000000E+00 -0.35940100070E+04  0.35940100070E+04  0.00000000000E+00 0. -1.
         24    2    1    2    0    0  0.52926983012E+02  0.58621606166E+03 -0.85553018465E+03  0.10437205147E+04  0.10473814680E+03 0.  0.
         25    2    1    2    0    0  0.27311710649E+03 -0.77096146903E+03 -0.10278769356E+04  0.13195180791E+04  0.12498970220E+03 0.  0.
         24    2    1    2    0    0 -0.25260796540E+03  0.76582785853E+02 -0.16778970839E+02  0.27678985216E+03  0.81580519285E+02 0.  0.
        -11    1    3    3    0    0  0.39270512321E+02  0.93713151714E+02 -0.10667543473E+03  0.14732269451E+03  0.00000000000E+00 0.  1.
         12    1    3    3    0    0  0.13656470691E+02  0.49250290995E+03 -0.74885474992E+03  0.89639782015E+03  0.00000000000E+00 0. -1.
        -13    1    5    5    0    0 -0.64070692451E+02  0.51668103511E+02  0.15889699498E+02  0.83827973264E+02  0.00000000000E+00 0.  1.
         14    1    5    5    0    0 -0.18853727295E+03  0.24914682342E+02 -0.32668670337E+02  0.19296187890E+03  0.00000000000E+00 0. -1.
          5    1    4    4  501    0  0.18932954252E+03 -0.57366783808E+03 -0.83846405507E+03  0.10334333678E+04  0.47000000000E+01 0. -1.
         -5    1    4    4    0  501  0.83787563962E+02 -0.19729363095E+03 -0.18941288056E+03  0.28608471125E+03  0.47000000000E+01 0. -1.
          1    1    1    2  502    0 -0.91676810509E+02  0.63068024751E+02  0.19792010004E+04  0.19823266162E+04  0.00000000000E+00 0. -1.
          1    1    1    2  503    0  0.18240686411E+02  0.45094596767E+02 -0.13218925711E+04  0.13227872901E+04  0.00000000000E+00 0. -1.
<mgrwt>
<rscale>  0 0.73574727E+02</rscale>
<asrwt>0</asrwt>
<pdfrwt beam="1">  1        2 0.34575476E+00 0.11128264E+03</pdfrwt>
<pdfrwt beam="2">  1        2 0.52853088E+00 0.48644067E+02</pdfrwt>
<totfact> 0.14630114E+00</totfact>
</mgrwt>
</event>
<event>
13    1  0.1595792E-008  0.1584988E+03  0.7546771E-02  0.1317097E+00
          2   -1    0    0  503    0  0.00000000000E+00  0.00000000000E+00  0.13043107687E+04  0.13043107687E+04  0.00000000000E+00 0. -1.
          2   -1    0    0  502    0 -0.00000000000E+00 -0.00000000000E+00 -0.27170461337E+04  0.27170461337E+04  0.00000000000E+00 0. -1.
         24    2    1    2    0    0  0.12336388639E+03  0.21100975579E+02 -0.66543497978E+03  0.68188745726E+03  0.80640513488E+02 0.  0.
         25    2    1    2    0    0  0.78871253010E+02  0.49974147334E+02 -0.89203348131E+02  0.17972502427E+03  0.12500302827E+03 0.  0.
         24    2    1    2    0    0 -0.24356771257E+02 -0.14271111095E+03 -0.45875479256E+02  0.17218928359E+03  0.81147250682E+02 0.  0.
        -11    1    5    5    0    0 -0.53597096331E+02 -0.75454849085E+02 -0.23023276116E+02  0.95373760693E+02  0.00000000000E+00 0.  1.
         12    1    5    5    0    0  0.29240325073E+02 -0.67256261862E+02 -0.22852203140E+02  0.76815522900E+02  0.00000000000E+00 0. -1.
        -11    1    3    3    0    0  0.10649991152E+03 -0.15879054080E+02 -0.50842925443E+03  0.51970634235E+03  0.00000000000E+00 0.  1.
         12    1    3    3    0    0  0.16863974865E+02  0.36980029660E+02 -0.15700572535E+03  0.16218111491E+03  0.00000000000E+00 0. -1.
          5    1    4    4  501    0  0.85987563255E+02  0.38021310607E+02 -0.50188788920E+01  0.94269614617E+02  0.47000000000E+01 0. -1.
         -5    1    4    4    0  501 -0.71163102450E+01  0.11952836728E+02 -0.84184469239E+02  0.85455409650E+02  0.47000000000E+01 0. -1.
          1    1    1    2  502    0 -0.17704152232E+03  0.26736608199E+02 -0.17950083439E+04  0.18039161570E+04  0.00000000000E+00 0. -1.
          1    1    1    2  503    0 -0.83684581810E+00  0.44899379834E+02  0.11827867860E+04  0.11836389804E+04  0.00000000000E+00 0. -1.
<mgrwt>
<rscale>  0 0.84366669E+02</rscale>
<asrwt>0</asrwt>
<pdfrwt beam="1">  1        2 0.19181041E+00 0.44907178E+02</pdfrwt>
<pdfrwt beam="2">  1        2 0.39956560E+00 0.15849882E+03</pdfrwt>
<totfact> 0.12620496E+01</totfact>
</mgrwt>
</event>
<event>
13    1  0.1595792E-008  0.1214381E+03  0.7546771E-02  0.1252381E+00
          2   -1    0    0  503    0  0.00000000000E+00  0.00000000000E+00  0.10786178142E+04  0.10786178142E+04  0.00000000000E+00 0. -1.
          2   -1    0    0  502    0 -0.00000000000E+00 -0.00000000000E+00 -0.94374459780E+03  0.94374459780E+03  0.00000000000E+00 0. -1.
         24    2    1    2    0    0 -0.23514822782E+03  0.80508857195E+02 -0.17034572138E+03  0.30909081863E+03  0.68870198419E+02 0.  0.
         25    2    1    2    0    0  0.11760952120E+03 -0.49812527229E+02  0.26700512644E+03  0.32129305699E+03  0.12499681426E+03 0.  0.
         24    2    1    2    0    0  0.13352264172E+02 -0.47973859591E+02  0.12189623481E+02  0.93736985334E+02  0.78474590386E+02 0.  0.
        -11    1    3    3    0    0 -0.10313275883E+03  0.38062930397E+02 -0.35132880362E+02  0.11541001645E+03  0.00000000000E+00 0.  1.
         12    1    3    3    0    0 -0.13201546899E+03  0.42445926798E+02 -0.13521284102E+03  0.19368080218E+03  0.00000000000E+00 0. -1.
        -13    1    5    5    0    0 -0.17650036953E+02 -0.42499436133E+01 -0.23236761378E+02  0.29487843334E+02  0.00000000000E+00 0.  1.
         14    1    5    5    0    0  0.31002301125E+02 -0.43723915978E+02  0.35426384859E+02  0.64249142000E+02  0.00000000000E+00 0. -1.
          5    1    4    4  501    0  0.77766894559E+02 -0.91560372009E+00  0.43973828133E+02  0.89466841791E+02  0.47000000000E+01 0. -1.
         -5    1    4    4    0  501  0.39842626644E+02 -0.48896923509E+02  0.22303129831E+03  0.23182621519E+03  0.47000000000E+01 0. -1.
          1    1    1    2  502    0  0.57316382831E+02  0.10729384843E+03 -0.62633357434E+03  0.63803674189E+03  0.00000000000E+00 0. -1.
          1    1    1    2  503    0  0.46870059618E+02 -0.90016318800E+02  0.65235776219E+03  0.66020480915E+03  0.00000000000E+00 0. -1.
<mgrwt>
<rscale>  0 0.11454272E+03</rscale>
<asrwt>0</asrwt>
<pdfrwt beam="1">  1        2 0.15862027E+00 0.10803884E+03</pdfrwt>
<pdfrwt beam="2">  1        2 0.13878597E+00 0.12143812E+03</pdfrwt>
<totfact> 0.12913938E+02</totfact>
</mgrwt>
</event>
<event>
13    1  0.1595792E-008  0.3945301E+02  0.7546771E-02  0.1515543E+00
          2   -1    0    0  503    0  0.00000000000E+00  0.00000000000E+00  0.17025190741E+04  0.17025190741E+04  0.00000000000E+00 0. -1.
          2   -1    0    0  502    0 -0.00000000000E+00 -0.00000000000E+00 -0.17262655720E+04  0.17262655720E+04  0.00000000000E+00 0. -1.
         24    2    1    2    0    0  0.66837213581E+02 -0.39396990881E+03 -0.90990376277E+03  0.99601444562E+03  0.66636448149E+02 0.  0.
         25    2    1    2    0    0  0.34274634216E+03 -0.42616659086E+02 -0.38907470757E+03  0.53506503394E+03  0.12499691110E+03 0.  0.
         24    2    1    2    0    0 -0.40220536653E+03  0.38010735529E+03  0.12392466826E+04  0.13595211697E+04  0.79465163439E+02 0.  0.
        -11    1    5    5    0    0 -0.27606254295E+03  0.24586436128E+03  0.73608618667E+03  0.82370060457E+03  0.00000000000E+00 0.  1.
         12    1    5    5    0    0 -0.12614282359E+03  0.13424299401E+03  0.50316049595E+03  0.53582056518E+03  0.00000000000E+00 0. -1.
        -13    1    3    3    0    0  0.69965560580E+01 -0.14752998979E+03 -0.27128251787E+03  0.30888226590E+03  0.00000000000E+00 0.  1.
         14    1    3    3    0    0  0.59840657523E+02 -0.24643991903E+03 -0.63862124489E+03  0.68713217972E+03  0.00000000000E+00 0. -1.
          5    1    4    4  501    0  0.25163152662E+03 -0.51370636142E+02 -0.20211870937E+03  0.32685077654E+03  0.47000000000E+01 0.  1.
         -5    1    4    4    0  501  0.91114815543E+02  0.87539770559E+01 -0.18695599820E+03  0.20821425741E+03  0.47000000000E+01 0.  1.
          1    1    1    2  502    0 -0.30213620169E+02  0.25366449872E+02 -0.24823762505E+03  0.25135281601E+03  0.00000000000E+00 0. -1.
          1    1    1    2  503    0  0.22835430959E+02  0.31112762730E+02  0.28422291486E+03  0.28683118074E+03  0.00000000000E+00 0. -1.
<mgrwt>
<rscale>  0 0.39020904E+02</rscale>
<asrwt>0</asrwt>
<pdfrwt beam="1">  1        2 0.25037045E+00 0.38593535E+02</pdfrwt>
<pdfrwt beam="2">  1        2 0.25386258E+00 0.39453006E+02</pdfrwt>
<totfact> 0.29397124E+01</totfact>
</mgrwt>
</event>
<event>
13    1  0.1595792E-008  0.9483581E+02  0.7546771E-02  0.1326735E+00
          2   -1    0    0  502    0  0.00000000000E+00  0.00000000000E+00  0.15208541460E+04  0.15208541460E+04  0.00000000000E+00 0. -1.
          2   -1    0    0  503    0 -0.00000000000E+00 -0.00000000000E+00 -0.12422507375E+04  0.12422507375E+04  0.00000000000E+00 0. -1.
         24    2    1    2    0    0  0.42332193475E+03  0.49317395388E+02 -0.21196334672E+03  0.48194594283E+03  0.75562990469E+02 0.  0.
         25    2    1    2    0    0 -0.24280941392E+03  0.18013934936E+03  0.18677864857E+03  0.37672089982E+03  0.12500310447E+03 0.  0.
         24    2    1    2    0    0 -0.14019648967E+03 -0.15683472187E+03  0.33938509927E+03  0.40682587925E+03  0.77928587301E+02 0.  0.
        -11    1    5    5    0    0 -0.20483301541E+02  0.33066094848E+01  0.58310390797E+02  0.61891849086E+02  0.00000000000E+00 0.  1.
         12    1    5    5    0    0 -0.11971318813E+03 -0.16014133136E+03  0.28107470847E+03  0.34493403016E+03  0.00000000000E+00 0. -1.
        -13    1    3    3    0    0  0.37247070034E+03  0.37371172243E+02 -0.15644412440E+03  0.40571639255E+03  0.00000000000E+00 0.  1.
         14    1    3    3    0    0  0.50851234410E+02  0.11946223145E+02 -0.55519222319E+02  0.76229550277E+02  0.00000000000E+00 0. -1.
          5    1    4    4  501    0 -0.23055364899E+02  0.67940301588E+02  0.80757568934E+02  0.10812635835E+03  0.47000000000E+01 0. -1.
         -5    1    4    4    0  501 -0.21975404902E+03  0.11219904777E+03  0.10602107964E+03  0.26859454147E+03  0.47000000000E+01 0. -1.
          1    1    1    2  502    0 -0.66283444305E+02  0.18728836801E+02  0.72643093364E+03  0.72968908836E+03  0.00000000000E+00 0. -1.
          1    1    1    2  503    0  0.25967413147E+02 -0.91350859672E+02 -0.76202792622E+03  0.76792307326E+03  0.00000000000E+00 0. -1.
<mgrwt>
<rscale>  0 0.80821778E+02</rscale>
<asrwt>0</asrwt>
<pdfrwt beam="1">  1        2 0.22365502E+00 0.68878620E+02</pdfrwt>
<pdfrwt beam="2">  1        2 0.18268393E+00 0.94835810E+02</pdfrwt>
<totfact> 0.54498760E+01</totfact>
</mgrwt>
</event>
<event>
13    1  0.1595792E-008  0.6416324E+02  0.7546771E-02  0.1416765E+00
          2   -1    0    0  503    0  0.00000000000E+00  0.00000000000E+00  0.16171082027E+04  0.16171082027E+04  0.00000000000E+00 0. -1.
          2   -1    0    0  502    0 -0.00000000000E+00 -0.00000000000E+00 -0.18244720623E+04  0.18244720623E+04  0.00000000000E+00 0. -1.
         24    2    1    2    0    0  0.16652075281E+02 -0.60684383640E+02 -0.76893964852E+03  0.77568986585E+03  0.80415787477E+02 0.  0.
         25    2    1    2    0    0 -0.49388701490E+01  0.68455467933E+02  0.49394478258E+02  0.15091910682E+03  0.12500487508E+03 0.  0.
         24    2    1    2    0    0  0.31797794877E+02  0.14506200994E+02  0.82647525805E+02  0.12049718097E+03  0.80420317537E+02 0.  0.
        -11    1    3    3    0    0 -0.27875265373E+02 -0.74943142689E+01 -0.33494566562E+03  0.33618714146E+03  0.00000000000E+00 0.  1.
         12    1    3    3    0    0  0.44527340654E+02 -0.53190069371E+02 -0.43399398291E+03  0.43950272439E+03  0.00000000000E+00 0. -1.
        -11    1    5    5    0    0  0.23210613197E+02  0.38013229589E+02  0.12860878157E+02  0.46358821984E+02  0.00000000000E+00 0.  1.
         12    1    5    5    0    0  0.85871816794E+01 -0.23507028595E+02  0.69786647648E+02  0.74138358982E+02  0.00000000000E+00 0. -1.
          5    1    4    4  501    0 -0.34782550866E+02 -0.18450657319E+02 -0.10642647510E+02  0.41056163316E+02  0.47000000000E+01 0.  1.
         -5    1    4    4    0  501  0.29843680717E+02  0.86906125252E+02  0.60037125768E+02  0.10986294350E+03  0.47000000000E+01 0.  1.
          1    1    1    2  502    0 -0.59995957687E+02  0.23199869418E+02 -0.98100222359E+03  0.98310890117E+03  0.00000000000E+00 0. -1.
          1    1    1    2  503    0  0.16484957679E+02 -0.45477154704E+02  0.14105360085E+04  0.14113652102E+04  0.00000000000E+00 0. -1.
<mgrwt>
<rscale>  0 0.55711347E+02</rscale>
<asrwt>0</asrwt>
<pdfrwt beam="1">  1        2 0.23781003E+00 0.48372776E+02</pdfrwt>
<pdfrwt beam="2">  1        2 0.26830471E+00 0.64163244E+02</pdfrwt>
<totfact> 0.27039493E+01</totfact>
</mgrwt>
</event>
<event>
13    1  0.1595792E-008  0.2323604E+03  0.7546771E-02  0.1235843E+00
          2   -1    0    0  503    0  0.00000000000E+00  0.00000000000E+00  0.40104470708E+03  0.40104470708E+03  0.00000000000E+00 0. -1.
          2   -1    0    0  502    0 -0.00000000000E+00 -0.00000000000E+00 -0.21100445998E+04  0.21100445998E+04  0.00000000000E+00 0. -1.
         24    2    1    2    0    0 -0.13170662050E+03 -0.20457115309E+02 -0.70514242217E+02  0.17109977230E+03  0.80856331085E+02 0.  0.
         25    2    1    2    0    0 -0.13593005641E+03  0.23202865874E+02  0.27859233943E+02  0.18818432975E+03  0.12498740667E+03 0.  0.
         24    2    1    2    0    0  0.97484628594E+02 -0.33983162797E+02  0.15030739023E+03  0.19947476635E+03  0.80868799217E+02 0.  0.
        -11    1    5    5    0    0  0.10903006185E+03 -0.34104319918E+02  0.14914642783E+03  0.18787047655E+03  0.00000000000E+00 0.  1.
         12    1    5    5    0    0 -0.11545433254E+02  0.12115712109E+00  0.11609623958E+01  0.11604289799E+02  0.00000000000E+00 0. -1.
        -13    1    3    3    0    0 -0.11180967696E+03  0.42785260492E+00 -0.83417860546E+02  0.13949955691E+03  0.00000000000E+00 0.  1.
         14    1    3    3    0    0 -0.19896943540E+02 -0.20884967914E+02  0.12903618329E+02  0.31600215394E+02  0.00000000000E+00 0. -1.
          5    1    4    4  501    0  0.25357744448E+01  0.42107160879E+02 -0.94065510278E+01  0.43474318299E+02  0.47000000000E+01 0. -1.
         -5    1    4    4    0  501 -0.13846583086E+03 -0.18904295005E+02  0.37265784971E+02  0.14471001145E+03  0.47000000000E+01 0. -1.
          1    1    1    2  502    0  0.23541334753E+03  0.45085305287E+02 -0.18582928075E+04  0.18736873505E+04  0.00000000000E+00 0. -1.
          1    1    1    2  503    0 -0.65261299212E+02 -0.13847893055E+02  0.41640532825E+02  0.78643088005E+02  0.00000000000E+00 0. -1.
<mgrwt>
<rscale>  0 0.12450609E+03</rscale>
<asrwt>0</asrwt>
<pdfrwt beam="1">  1        2 0.58977163E-01 0.66714326E+02</pdfrwt>
<pdfrwt beam="2">  1        2 0.31030067E+00 0.23236040E+03</pdfrwt>
<totfact> 0.96908264E+01</totfact>
</mgrwt>
</event>
<event>
13    1  0.1595792E-008  0.1030784E+03  0.7546771E-02  0.1489846E+00
          2   -1    0    0  503    0  0.00000000000E+00  0.00000000000E+00  0.18045640090E+04  0.18045640090E+04  0.00000000000E+00 0. -1.
          2   -1    0    0  502    0 -0.00000000000E+00 -0.00000000000E+00 -0.26083755793E+04  0.26083755793E+04  0.00000000000E+00 0. -1.
         24    2    1    2    0    0  0.43255367307E-01  0.36412715824E+02 -0.54264895339E+03  0.54983247034E+03  0.80758721426E+02 0.  0.
         25    2    1    2    0    0  0.34784003269E+02 -0.53477094972E+02 -0.24148951568E+03  0.27930767233E+03  0.12500345222E+03 0.  0.
         24    2    1    2    0    0  0.48093985757E+02 -0.49930587974E+01 -0.65877561254E+02  0.11300544397E+03  0.78053924876E+02 0.  0.
        -11    1    3    3    0    0 -0.30075923354E+02  0.47701701116E+02 -0.35251983992E+03  0.35700175209E+03  0.00000000000E+00 0.  1.
         12    1    3    3    0    0  0.30119178721E+02 -0.11288985293E+02 -0.19012911346E+03  0.19283071825E+03  0.00000000000E+00 0. -1.
        -11    1    5    5    0    0 -0.10612590342E+02  0.22032026919E+02 -0.31262010354E+02  0.39690686254E+02  0.00000000000E+00 0.  1.
         12    1    5    5    0    0  0.58706576099E+02 -0.27025085717E+02 -0.34615550900E+02  0.73314757719E+02  0.00000000000E+00 0. -1.
          5    1    4    4  501    0 -0.37616903888E+02 -0.41102785011E+02 -0.16005565025E+03  0.16954165143E+03  0.47000000000E+01 0. -1.
         -5    1    4    4    0  501  0.72400907157E+02 -0.12374309961E+02 -0.81433865431E+02  0.10976602090E+03  0.47000000000E+01 0. -1.
          1    1    1    2  502    0  0.16787261085E+02 -0.53295389516E+01 -0.17107293766E+04  0.17108200420E+04  0.00000000000E+00 0. -1.
          1    1    1    2  503    0 -0.99708505479E+02  0.27386976897E+02  0.17569338366E+04  0.17599739597E+04  0.00000000000E+00 0. -1.
<mgrwt>
<rscale>  0 0.42608857E+02</rscale>
<asrwt>0</asrwt>
<pdfrwt beam="1">  1        2 0.26537706E+00 0.10307838E+03</pdfrwt>
<pdfrwt beam="2">  1        2 0.38358464E+00 0.17612953E+02</pdfrwt>
<totfact> 0.10619679E+01</totfact>
</mgrwt>
</event>
<event>
13    1  0.1595792E-008  0.9528703E+02  0.7546771E-02  0.1297071E+00
          2   -1    0    0  503    0  0.00000000000E+00  0.00000000000E+00  0.36976909753E+04  0.36976909753E+04  0.00000000000E+00 0. -1.
          2   -1    0    0  502    0 -0.00000000000E+00 -0.00000000000E+00 -0.21433857496E+04  0.21433857496E+04  0.00000000000E+00 0. -1.
         24    2    1    2    0    0  0.30380997770E+02  0.47623845110E+02 -0.22053605543E+03  0.24139607134E+03  0.80279984194E+02 0.  0.
         25    2    1    2    0    0 -0.43101194372E+02  0.87242654842E+02  0.20745128387E+03  0.26101609258E+03  0.12499748648E+03 0.  0.
         24    2    1    2    0    0  0.19812604946E+02  0.49725904828E+02  0.62487172341E+03  0.63219354985E+03  0.79616636642E+02 0.  0.
        -11    1    5    5    0    0 -0.12549749122E+02  0.19716685834E+02  0.45578565922E+02  0.51221573334E+02  0.00000000000E+00 0.  1.
         12    1    5    5    0    0  0.32362354069E+02  0.30009218994E+02  0.57929315749E+03  0.58097197652E+03  0.00000000000E+00 0. -1.
        -13    1    3    3    0    0  0.52263104467E+02  0.18638337640E+02 -0.17231501119E+03  0.18102840330E+03  0.00000000000E+00 0.  1.
         14    1    3    3    0    0 -0.21882106697E+02  0.28985507470E+02 -0.48221044245E+02  0.60367668042E+02  0.00000000000E+00 0. -1.
          5    1    4    4  501    0 -0.64027786900E+02 -0.40332624889E+01  0.76340207585E+02  0.99828563025E+02  0.47000000000E+01 0.  1.
         -5    1    4    4    0  501  0.20926592528E+02  0.91275917331E+02  0.13111107628E+03  0.16118752955E+03  0.47000000000E+01 0.  1.
          1    1    1    2  502    0 -0.21543154345E+01 -0.95069777323E+02 -0.18800628449E+04  0.18824662558E+04  0.00000000000E+00 0. -1.
          1    1    1    2  503    0 -0.49380929088E+01 -0.89522627457E+02  0.28225811188E+04  0.28240047553E+04  0.00000000000E+00 0. -1.
<mgrwt>
<rscale>  0 0.92430043E+02</rscale>
<asrwt>0</asrwt>
<pdfrwt beam="1">  1        2 0.54377808E+00 0.89658717E+02</pdfrwt>
<pdfrwt beam="2">  1        2 0.31520379E+00 0.95287030E+02</pdfrwt>
<totfact> 0.14432548E+00</totfact>
</mgrwt>
</event>
<event>
13    1  0.1595792E-008  0.1411664E+03  0.7546771E-02  0.1352008E+00
         -3   -1    0    0    0  501 -0.00000000000E+00  0.00000000000E+00  0.16352500209E+04  0.16352500209E+04  0.00000000000E+00 0.  1.
          2   -1    0    0  503    0  0.00000000000E+00 -0.00000000000E+00 -0.38054926787E+04  0.38054926787E+04  0.00000000000E+00 0. -1.
         24    2    1    2    0    0  0.14588920637E+03  0.55480808248E+02 -0.38303240156E+02  0.18005961488E+03  0.81194495395E+02 0.  0.
         25    2    1    2    0    0 -0.48914949761E+03 -0.15503972420E+03  0.36299588589E+02  0.52938392335E+03  0.12500052432E+03 0.  0.
         24    2    1    2    0    0  0.45123292853E+03  0.21952661196E+03 -0.78425630546E+03  0.93257392223E+03  0.53226672162E+02 0.  0.
        -13    1    3    3    0    0  0.91695707276E+02  0.96516663913E+01 -0.54713062902E+02  0.10721369618E+03  0.00000000000E+00 0.  1.
         14    1    3    3    0    0  0.54193499098E+02  0.45829141857E+02  0.16409822745E+02  0.72845918694E+02  0.00000000000E+00 0. -1.
        -13    1    5    5    0    0  0.23952420191E+03  0.87652654680E+02 -0.38574645324E+03  0.46244476141E+03  0.00000000000E+00 0.  1.
         14    1    5    5    0    0  0.21170872661E+03  0.13187395728E+03 -0.39850985223E+03  0.47012916082E+03  0.00000000000E+00 0. -1.
          5    1    4    4  502    0 -0.48137814750E+03 -0.15492383552E+03  0.54897407521E+02  0.50868667277E+03  0.47000000000E+01 0. -1.
         -5    1    4    4    0  502 -0.77713501164E+01 -0.11588867509E+00 -0.18597818932E+02  0.20697250587E+02  0.47000000000E+01 0. -1.
          1    1    1    2  503    0 -0.11389343711E+03 -0.83276235020E+02 -0.25891467970E+04  0.25929881957E+04  0.00000000000E+00 0. -1.
         -4    1    1    2    0  501  0.59207998194E+01 -0.36691460992E+02  0.12051640962E+04  0.12057370435E+04  0.00000000000E+00 0.  1.
<mgrwt>
<rscale>  0 0.72433455E+02</rscale>
<asrwt>0</asrwt>
<pdfrwt beam="2">  1        2 0.55963128E+00 0.14116641E+03</pdfrwt>
<pdfrwt beam="1">  1       -3 0.24047794E+00 0.37166103E+02</pdfrwt>
<totfact> 0.58236023E-02</totfact>
</mgrwt>
</event>
<event>
13    1  0.1595792E-008  0.4912600E+02  0.7546771E-02  0.1467985E+00
          2   -1    0    0  503    0  0.00000000000E+00  0.00000000000E+00  0.15095583227E+04  0.15095583227E+04  0.00000000000E+00 0. -1.
          2   -1    0    0  502    0 -0.00000000000E+00 -0.00000000000E+00 -0.14266640367E+04  0.14266640367E+04  0.00000000000E+00 0. -1.
         24    2    1    2    0    0 -0.27999922529E+02 -0.40972089954E+02 -0.95565928431E+02  0.13485160860E+03  0.81175130724E+02 0.  0.
         25    2    1    2    0    0  0.22301209033E+03 -0.14652904707E+03  0.89288083852E+02  0.30790008548E+03  0.12499978662E+03 0.  0.
         24    2    1    2    0    0 -0.20272054154E+03  0.17465061801E+03  0.32165058233E+03  0.42208252543E+03  0.55642652968E+02 0.  0.
        -13    1    3    3    0    0 -0.41184378610E+02  0.10071887099E+02 -0.44145770645E+02  0.61208210373E+02  0.00000000000E+00 0.  1.
         14    1    3    3    0    0  0.13184456082E+02 -0.51043977052E+02 -0.51420157786E+02  0.73643398226E+02  0.00000000000E+00 0. -1.
        -13    1    5    5    0    0 -0.87354584828E+02  0.58687321227E+02  0.16428025512E+03  0.19509748175E+03  0.00000000000E+00 0.  1.
         14    1    5    5    0    0 -0.11536595671E+03  0.11596329679E+03  0.15737032721E+03  0.22698504368E+03  0.00000000000E+00 0. -1.
          5    1    4    4  501    0  0.45927100194E+02  0.72832965682E+01  0.52733362252E+02  0.70464476409E+02  0.47000000000E+01 0. -1.
         -5    1    4    4    0  501  0.17708499013E+03 -0.15381234364E+03  0.36554721600E+02  0.23743560907E+03  0.47000000000E+01 0. -1.
          1    1    1    2  502    0 -0.22356316014E+02  0.43785367618E+02 -0.11509022656E+04  0.11519518168E+04  0.00000000000E+00 0. -1.
          1    1    1    2  503    0  0.30064689755E+02 -0.30934848607E+02  0.91842381382E+03  0.91943632309E+03  0.00000000000E+00 0. -1.
<mgrwt>
<rscale>  0 0.46034512E+02</rscale>
<asrwt>0</asrwt>
<pdfrwt beam="1">  1        2 0.22199387E+00 0.43137576E+02</pdfrwt>
<pdfrwt beam="2">  1        2 0.20980353E+00 0.49125995E+02</pdfrwt>
<totfact> 0.48554146E+01</totfact>
</mgrwt>
</event>
<event>
13    1  0.1595792E-008  0.7460701E+02  0.7546771E-02  0.1388688E+00
          2   -1    0    0  503    0  0.00000000000E+00  0.00000000000E+00  0.15690343634E+04  0.15690343634E+04  0.00000000000E+00 0. -1.
         -3   -1    0    0    0  501 -0.00000000000E+00 -0.00000000000E+00 -0.18144577221E+04  0.18144577221E+04  0.00000000000E+00 0.  1.
         24    2    1    2    0    0 -0.37186326913E+02  0.21185948052E+02 -0.36306722468E+02  0.96659304764E+02  0.78696733077E+02 0.  0.
         25    2    1    2    0    0 -0.18979457363E+03  0.15717783621E+03  0.19579096800E+03  0.33866078472E+03  0.12502068463E+03 0.  0.
         24    2    1    2    0    0  0.28055187843E+03 -0.13543919505E+03  0.32078027494E+03  0.45422982885E+03  0.79822431577E+02 0.  0.
        -13    1    3    3    0    0 -0.53177419814E+02  0.28968772339E+01 -0.46127259988E+02  0.70455333295E+02  0.00000000000E+00 0.  1.
         14    1    3    3    0    0  0.15991092901E+02  0.18289070818E+02  0.98205375205E+01  0.26203971469E+02  0.00000000000E+00 0. -1.
        -13    1    5    5    0    0  0.20897209433E+03 -0.75249922756E+02  0.18341471361E+03  0.28805007248E+03  0.00000000000E+00 0.  1.
         14    1    5    5    0    0  0.71579784100E+02 -0.60189272291E+02  0.13736556133E+03  0.16617975638E+03  0.00000000000E+00 0. -1.
          5    1    4    4  502    0 -0.16081106944E+03  0.17303744304E+03  0.14290753984E+03  0.27612825225E+03  0.47000000000E+01 0.  1.
         -5    1    4    4    0  502 -0.28983504190E+02 -0.15859606830E+02  0.52883428156E+02  0.62532532473E+02  0.47000000000E+01 0.  1.
          1    1    1    2  503    0 -0.74653195197E+02  0.45152928246E+01  0.88212581454E+03  0.88529059641E+03  0.00000000000E+00 0. -1.
         -4    1    1    2    0  501  0.21082217310E+02 -0.47439882036E+02 -0.16078136937E+04  0.16086515707E+04  0.00000000000E+00 0.  1.
<mgrwt>
<rscale>  0 0.62234271E+02</rscale>
<asrwt>0</asrwt>
<pdfrwt beam="1">  1        2 0.23074035E+00 0.74607011E+02</pdfrwt>
<pdfrwt beam="2">  1       -3 0.26683202E+00 0.51913412E+02</pdfrwt>
<totfact> 0.68640809E-01</totfact>
</mgrwt>
</event>
<event>
13    1  0.1595792E-008  0.1106851E+03  0.7546771E-02  0.1273636E+00
          2   -1    0    0  503    0  0.00000000000E+00  0.00000000000E+00  0.29589385596E+04  0.29589385596E+04  0.00000000000E+00 0. -1.
          2   -1    0    0  502    0 -0.00000000000E+00 -0.00000000000E+00 -0.36452353977E+04  0.36452353977E+04  0.00000000000E+00 0. -1.
         24    2    1    2    0    0 -0.33161527766E+03 -0.44895662909E+03 -0.51183586172E+03  0.76175118973E+03  0.82208141510E+02 0.  0.
         25    2    1    2    0    0  0.55501846834E+02  0.61470017789E+03  0.44581030525E+03  0.77156255819E+03  0.12500075693E+03 0.  0.
         24    2    1    2    0    0  0.29115047575E+03 -0.16038738840E+03  0.10659449533E+04  0.11197913713E+04  0.84860815116E+02 0.  0.
        -11    1    5    5    0    0  0.12326800570E+03 -0.66869164994E+02  0.59166223836E+03  0.60805484190E+03  0.00000000000E+00 0.  1.
         12    1    5    5    0    0  0.16788247004E+03 -0.93518223403E+02  0.47428271495E+03  0.51173652944E+03  0.00000000000E+00 0. -1.
        -11    1    3    3    0    0 -0.23891950191E+03 -0.37329080588E+03 -0.42360389916E+03  0.61308141183E+03  0.00000000000E+00 0.  1.
         12    1    3    3    0    0 -0.92695775744E+02 -0.75665823201E+02 -0.88231962567E+02  0.14866977790E+03  0.00000000000E+00 0. -1.
          5    1    4    4  501    0  0.88646449450E+02  0.45260496316E+03  0.36021889883E+03  0.58522576050E+03  0.47000000000E+01 0. -1.
         -5    1    4    4    0  501 -0.33144602616E+02  0.16209521473E+03  0.85591406419E+02  0.18633679769E+03  0.47000000000E+01 0. -1.
          1    1    1    2  502    0  0.69029211740E+02  0.67128295420E+02 -0.28150973751E+04  0.28167435935E+04  0.00000000000E+00 0. -1.
          1    1    1    2  503    0 -0.84066256662E+02 -0.72484455826E+02  0.11288811401E+04  0.11343252445E+04  0.00000000000E+00 0. -1.
<mgrwt>
<rscale>  0 0.10323550E+03</rscale>
<asrwt>0</asrwt>
<pdfrwt beam="1">  1        2 0.43513802E+00 0.11068512E+03</pdfrwt>
<pdfrwt beam="2">  1        2 0.53606403E+00 0.96287279E+02</pdfrwt>
<totfact> 0.58472865E-01</totfact>
</mgrwt>
</event>
<event>
13    1  0.1595792E-008  0.6634720E+02  0.7546771E-02  0.1506662E+00
          2   -1    0    0  503    0  0.00000000000E+00  0.00000000000E+00  0.24697706096E+04  0.24697706096E+04  0.00000000000E+00 0. -1.
          2   -1    0    0  502    0 -0.00000000000E+00 -0.00000000000E+00 -0.20448104079E+04  0.20448104079E+04  0.00000000000E+00 0. -1.
         24    2    1    2    0    0  0.48527716707E+03 -0.62681707157E+03 -0.89385816804E+03  0.11992499376E+04  0.10404046407E+03 0.  0.
         25    2    1    2    0    0 -0.21356035320E+03  0.11326059634E+04  0.46953229419E+02  0.11602739138E+04  0.12500662555E+03 0.  0.
         24    2    1    2    0    0 -0.24261183446E+03 -0.54077008466E+03  0.23494822254E+03  0.64295060025E+03  0.83018193213E+02 0.  0.
        -13    1    3    3    0    0  0.40383201391E+03 -0.51637280711E+03 -0.67500159187E+03  0.94092949810E+03  0.00000000000E+00 0.  1.
         14    1    3    3    0    0  0.81445153159E+02 -0.11044426446E+03 -0.21885657617E+03  0.25832043949E+03  0.00000000000E+00 0. -1.
        -13    1    5    5    0    0 -0.16697515600E+03 -0.27980161005E+03  0.14602075957E+03  0.35705980722E+03  0.00000000000E+00 0.  1.
         14    1    5    5    0    0 -0.75636678461E+02 -0.26096847461E+03  0.88927462976E+02  0.28589079303E+03  0.00000000000E+00 0. -1.
          5    1    4    4  501    0  0.16073688177E+02  0.64685828113E+02  0.72732149181E+01  0.67213164377E+02  0.47000000000E+01 0. -1.
         -5    1    4    4    0  501 -0.22963404138E+03  0.10679201353E+04  0.39680014501E+02  0.10930607494E+04  0.47000000000E+01 0. -1.
          1    1    1    2  502    0  0.23851503289E+02 -0.50058129558E+01 -0.23610342119E+03  0.23735791091E+03  0.00000000000E+00 0. -1.
          1    1    1    2  503    0 -0.52956482699E+02  0.39987005764E+02  0.12730203390E+04  0.12747486549E+04  0.00000000000E+00 0. -1.
<mgrwt>
<rscale>  0 0.40211401E+02</rscale>
<asrwt>0</asrwt>
<pdfrwt beam="1">  1        2 0.36320156E+00 0.66347201E+02</pdfrwt>
<pdfrwt beam="2">  1        2 0.30070741E+00 0.24371138E+02</pdfrwt>
<totfact> 0.91310795E+00</totfact>
</mgrwt>
</event>
<event>
13    1  0.1595792E-008  0.2514948E+02  0.7546771E-02  0.1741705E+00
          2   -1    0    0  502    0  0.00000000000E+00  0.00000000000E+00  0.21655934106E+03  0.21655934106E+03  0.00000000000E+00 0. -1.
          2   -1    0    0  503    0 -0.00000000000E+00 -0.00000000000E+00 -0.17346138938E+04  0.17346138938E+04  0.00000000000E+00 0. -1.
         24    2    1    2    0    0  0.52137123231E+02  0.29676032806E+02 -0.39487531620E+03  0.40723186557E+03  0.79450175913E+02 0.  0.
         25    2    1    2    0    0 -0.29034399641E+02 -0.10996992739E+03  0.14698401385E+02  0.16962946648E+03  0.12498692573E+03 0.  0.
         24    2    1    2    0    0 -0.15368012585E+02  0.61231446687E+02 -0.15611562898E+01  0.10220598588E+03  0.80362680803E+02 0.  0.
        -11    1    3    3    0    0 -0.14077286971E+02 -0.14163917656E+02 -0.70115348621E+02  0.72903694584E+02  0.00000000000E+00 0.  1.
         12    1    3    3    0    0  0.66214410203E+02  0.43839950462E+02 -0.32475996758E+03  0.33432817099E+03  0.00000000000E+00 0. -1.
        -11    1    5    5    0    0  0.68265137872E+01 -0.15975955029E+02  0.11475156110E+02  0.20820942277E+02  0.00000000000E+00 0.  1.
         12    1    5    5    0    0 -0.22194526372E+02  0.77207401716E+02 -0.13036312400E+02  0.81385043599E+02  0.00000000000E+00 0. -1.
          5    1    4    4  501    0 -0.35248809712E+02 -0.37241448479E+02  0.63458695079E+02  0.81722090355E+02  0.47000000000E+01 0. -1.
         -5    1    4    4    0  501  0.62144100710E+01 -0.72728478908E+02 -0.48760293694E+02  0.87907376129E+02  0.47000000000E+01 0. -1.
          1    1    1    2  502    0 -0.15443763426E+02 -0.48850763307E+01  0.66795235915E+02  0.68731196268E+02  0.00000000000E+00 0. -1.
          1    1    1    2  503    0  0.77090524207E+01  0.23947524224E+02 -0.12031117175E+04  0.12033747206E+04  0.00000000000E+00 0. -1.
<mgrwt>
<rscale>  0 0.20183414E+02</rscale>
<asrwt>0</asrwt>
<pdfrwt beam="1">  1        2 0.31846961E-01 0.16197957E+02</pdfrwt>
<pdfrwt beam="2">  1        2 0.25509029E+00 0.25149481E+02</pdfrwt>
<totfact> 0.33209936E+02</totfact>
</mgrwt>
</event>
<event>
13    1  0.1595792E-008  0.1264845E+03  0.7546771E-02  0.1249244E+00
          2   -1    0    0  502    0  0.00000000000E+00  0.00000000000E+00  0.15901427712E+04  0.15901427712E+04  0.00000000000E+00 0. -1.
          2   -1    0    0  503    0 -0.00000000000E+00 -0.00000000000E+00 -0.32944907335E+04  0.32944907335E+04  0.00000000000E+00 0. -1.
         24    2    1    2    0    0  0.19729140236E+02 -0.31206792230E+02 -0.92098812193E+02  0.12750894593E+03  0.80082689939E+02 0.  0.
         25    2    1    2    0    0  0.75261782778E+01 -0.48012994045E+02 -0.22438992112E+01  0.13413343155E+03  0.12499940567E+03 0.  0.
         24    2    1    2    0    0  0.11302725195E+03 -0.12404040139E+03  0.32887238948E+03  0.37778896756E+03  0.80039206598E+02 0.  0.
        -11    1    5    5    0    0 -0.63986950692E+01  0.61070053125E+01  0.21982241054E+02  0.23695099372E+02  0.00000000000E+00 0.  1.
         12    1    5    5    0    0  0.11942594702E+03 -0.13014740670E+03  0.30689014842E+03  0.35409386819E+03  0.00000000000E+00 0. -1.
        -13    1    3    3    0    0 -0.17490032961E+02 -0.36925438717E+02 -0.76545214163E+02  0.86767269685E+02  0.00000000000E+00 0.  1.
         14    1    3    3    0    0  0.37219173198E+02  0.57186464871E+01 -0.15553598030E+02  0.40741676240E+02  0.00000000000E+00 0. -1.
          5    1    4    4  501    0  0.31192218903E+02 -0.16117563435E+02 -0.56526448955E+02  0.66708768558E+02  0.47000000000E+01 0. -1.
         -5    1    4    4    0  501 -0.23666040625E+02 -0.31895430609E+02  0.54282549743E+02  0.67424662990E+02  0.47000000000E+01 0. -1.
          1    1    1    2  502    0  0.43800401429E+02  0.97671256804E+02  0.11470261262E+04  0.11520100190E+04  0.00000000000E+00 0. -1.
          1    1    1    2  503    0 -0.18408297189E+03  0.10558893086E+03 -0.30859037666E+04  0.30931921407E+04  0.00000000000E+00 0. -1.
<mgrwt>
<rscale>  0 0.11634958E+03</rscale>
<asrwt>0</asrwt>
<pdfrwt beam="1">  1        2 0.23384453E+00 0.10702679E+03</pdfrwt>
<pdfrwt beam="2">  1        2 0.48448392E+00 0.12648446E+03</pdfrwt>
<totfact> 0.42989163E+00</totfact>
</mgrwt>
</event>
<event>
13    1  0.1595792E-008  0.3754271E+03  0.7546771E-02  0.1244921E+00
         -3   -1    0    0    0  501 -0.00000000000E+00  0.00000000000E+00  0.11574905144E+04  0.11574905144E+04  0.00000000000E+00 0.  1.
          2   -1    0    0  503    0  0.00000000000E+00 -0.00000000000E+00 -0.13296640350E+04  0.13296640350E+04  0.00000000000E+00 0. -1.
         24    2    1    2    0    0  0.47413602034E+03  0.93028067187E+00  0.96973984102E+01  0.48108752544E+03  0.80903253251E+02 0.  0.
         25    2    1    2    0    0  0.49276117546E+02 -0.38448083724E+02 -0.71330636549E+02  0.15690757555E+03  0.12500214659E+03 0.  0.
         24    2    1    2    0    0 -0.14262178963E+03 -0.54002575521E+02 -0.44449773830E+03  0.47685340510E+03  0.80954787138E+02 0.  0.
        -11    1    5    5    0    0 -0.31716814497E+02 -0.12592677542E+02 -0.28883772283E+02  0.44707987551E+02  0.00000000000E+00 0.  1.
         12    1    5    5    0    0 -0.11090497513E+03 -0.41409897979E+02 -0.41561396602E+03  0.43214541755E+03  0.00000000000E+00 0. -1.
        -13    1    3    3    0    0  0.14347164014E+03  0.35483642960E+02 -0.92464771861E+01  0.14808341494E+03  0.00000000000E+00 0.  1.
         14    1    3    3    0    0  0.33066438021E+03 -0.34553362288E+02  0.18943875596E+02  0.33300411049E+03  0.00000000000E+00 0. -1.
          5    1    4    4  502    0  0.75544573762E+02 -0.47012112193E+02 -0.87224018956E+02  0.12468857526E+03  0.47000000000E+01 0. -1.
         -5    1    4    4    0  502 -0.26268456216E+02  0.85640284686E+01  0.15893382406E+02  0.32219000293E+02  0.47000000000E+01 0. -1.
          1    1    1    2  503    0 -0.26078162079E+02  0.27165924443E+02 -0.48032055069E+03  0.48179444725E+03  0.00000000000E+00 0. -1.
         -4    1    1    2    0  501 -0.35471218618E+03  0.64354454130E+02  0.81427800650E+03  0.89051159602E+03  0.00000000000E+00 0.  1.
<mgrwt>
<rscale>  0 0.11890121E+03</rscale>
<asrwt>0</asrwt>
<pdfrwt beam="2">  1        2 0.19553883E+00 0.37657111E+02</pdfrwt>
<pdfrwt beam="1">  1       -3 0.17021919E+00 0.37542707E+03</pdfrwt>
<totfact> 0.31310632E+00</totfact>
</mgrwt>
</event>
<event>
13    1  0.1595792E-008  0.1228409E+03  0.7546771E-02  0.1296692E+00
          2   -1    0    0  502    0  0.00000000000E+00  0.00000000000E+00  0.85053236784E+03  0.85053236784E+03  0.00000000000E+00 0. -1.
          2   -1    0    0  503    0 -0.00000000000E+00 -0.00000000000E+00 -0.25405236686E+04  0.25405236686E+04  0.00000000000E+00 0. -1.
         24    2    1    2    0    0  0.12220818038E+02 -0.12668757107E+03 -0.14811552339E+04  0.14885865383E+04  0.76615703482E+02 0.  0.
         25    2    1    2    0    0 -0.99935581760E+02  0.31309794345E+02  0.89376276726E+00  0.16307307326E+03  0.12499841873E+03 0.  0.
         24    2    1    2    0    0 -0.52463442396E+01 -0.40629967441E+02  0.19616628034E+03  0.21679743850E+03  0.82713973521E+02 0.  0.
        -11    1    5    5    0    0 -0.35680268163E+02 -0.32742909771E+02  0.60287601961E+02  0.77329002494E+02  0.00000000000E+00 0.  1.
         12    1    5    5    0    0  0.30433923923E+02 -0.78870576698E+01  0.13587867838E+03  0.13946843600E+03  0.00000000000E+00 0. -1.
        -13    1    3    3    0    0  0.38742249457E+02 -0.88653678594E+02 -0.11702780943E+04  0.11742705202E+04  0.00000000000E+00 0.  1.
         14    1    3    3    0    0 -0.26521431420E+02 -0.38033892478E+02 -0.31087713960E+03  0.31431601809E+03  0.00000000000E+00 0. -1.
          5    1    4    4  501    0 -0.34927972410E+02  0.21321734316E+02 -0.60359024424E+02  0.73074492405E+02  0.47000000000E+01 0. -1.
         -5    1    4    4    0  501 -0.65007609349E+02  0.99880600299E+01  0.61252787191E+02  0.89998580851E+02  0.47000000000E+01 0. -1.
          1    1    1    2  502    0 -0.98946519067E+01  0.69087699017E+02  0.55224217623E+03  0.55663492120E+03  0.00000000000E+00 0. -1.
          1    1    1    2  503    0  0.10285575987E+03  0.66920045150E+02 -0.95813828623E+03  0.96596406523E+03  0.00000000000E+00 0. -1.
<mgrwt>
<rscale>  0 0.92592618E+02</rscale>
<asrwt>0</asrwt>
<pdfrwt beam="1">  1        2 0.12507829E+00 0.69792652E+02</pdfrwt>
<pdfrwt beam="2">  1        2 0.37360641E+00 0.12284091E+03</pdfrwt>
<totfact> 0.27706959E+01</totfact>
</mgrwt>
</event>
<event>
13    1  0.1595792E-008  0.5870603E+02  0.7546771E-02  0.1421991E+00
          2   -1    0    0  503    0  0.00000000000E+00  0.00000000000E+00  0.44804418428E+04  0.44804418428E+04  0.00000000000E+00 0. -1.
         -1   -1    0    0    0  501 -0.00000000000E+00 -0.00000000000E+00 -0.10676123644E+04  0.10676123644E+04  0.00000000000E+00 0.  1.
         24    2    1    2    0    0 -0.12148273289E+04  0.18902619894E+03  0.24125081455E+03  0.12554935470E+04  0.80782102507E+02 0.  0.
         25    2    1    2    0    0  0.10255501174E+04 -0.29045835939E+01  0.53321076767E+03  0.11626267762E+04  0.12500327244E+03 0.  0.
         24    2    1    2    0    0  0.20773543352E+03 -0.22084555334E+03  0.11188331907E+04  0.11633065159E+04  0.97813969586E+02 0.  0.
        -13    1    3    3    0    0 -0.30656740055E+03  0.37594458179E+02  0.95074557017E+02  0.32316572491E+03  0.00000000000E+00 0.  1.
         14    1    3    3    0    0 -0.90825992831E+03  0.15143174077E+03  0.14617625754E+03  0.93232782204E+03  0.00000000000E+00 0. -1.
        -13    1    5    5    0    0  0.10739159041E+03 -0.16994619235E+03  0.81132105459E+03  0.83585675543E+03  0.00000000000E+00 0.  1.
         14    1    5    5    0    0  0.10034384311E+03 -0.50899360985E+02  0.30751213611E+03  0.32744976050E+03  0.00000000000E+00 0. -1.
          5    1    4    4  502    0  0.74914342850E+03 -0.45678382686E+02  0.34929721865E+03  0.82784843303E+03  0.47000000000E+01 0.  1.
         -5    1    4    4    0  502  0.27640668889E+03  0.42773799092E+02  0.18391354902E+03  0.33477834318E+03  0.47000000000E+01 0.  1.
          1    1    1    2  503    0  0.29774126475E+02  0.50621416905E+02  0.17396948444E+04  0.17406858356E+04  0.00000000000E+00 0. -1.
         -2    1    1    2    0  501 -0.48232348521E+02 -0.15897478918E+02 -0.22016013900E+03  0.22594153245E+03  0.00000000000E+00 0.  1.
<mgrwt>
<rscale>  0 0.54601925E+02</rscale>
<asrwt>0</asrwt>
<pdfrwt beam="1">  1        2 0.65888850E+00 0.58706030E+02</pdfrwt>
<pdfrwt beam="2">  1       -1 0.15700182E+00 0.50784735E+02</pdfrwt>
<totfact> 0.16384254E-01</totfact>
</mgrwt>
</event>
<event>
13    1  0.1595792E-008  0.1093984E+03  0.7546771E-02  0.1370287E+00
          2   -1    0    0  502    0  0.00000000000E+00  0.00000000000E+00  0.31088779609E+04  0.31088779609E+04  0.00000000000E+00 0. -1.
          2   -1    0    0  503    0 -0.00000000000E+00 -0.00000000000E+00 -0.11039808626E+04  0.11039808626E+04  0.00000000000E+00 0. -1.
         24    2    1    2    0    0  0.42798258867E+02  0.11963428068E+02 -0.38368753481E+03  0.39453137919E+03  0.80399441688E+02 0.  0.
         25    2    1    2    0    0  0.23406585757E+02 -0.44460502191E+02  0.85900134677E+02  0.15976636280E+03  0.12498741149E+03 0.  0.
         24    2    1    2    0    0 -0.32107338284E+02  0.11280187614E+03  0.15396035155E+04  0.15461664250E+04  0.80600770678E+02 0.  0.
        -11    1    5    5    0    0  0.21397247376E+02  0.29402080687E+02  0.23404061204E+03  0.23684875475E+03  0.00000000000E+00 0.  1.
         12    1    5    5    0    0 -0.53504585660E+02  0.83399795452E+02  0.13055629035E+04  0.13093176702E+04  0.00000000000E+00 0. -1.
        -11    1    3    3    0    0  0.45588183350E+02  0.24378769767E+02 -0.37626488407E+03  0.37979977601E+03  0.00000000000E+00 0.  1.
         12    1    3    3    0    0 -0.27899244827E+01 -0.12415341699E+02 -0.74226507410E+01  0.14731603176E+02  0.00000000000E+00 0. -1.
          5    1    4    4  501    0 -0.16422117400E+02 -0.53766106435E+02  0.10118596947E+03  0.11584977583E+03  0.47000000000E+01 0. -1.
         -5    1    4    4    0  501  0.39828703157E+02  0.93056042443E+01 -0.15285834797E+02  0.43916586969E+02  0.47000000000E+01 0. -1.
          1    1    1    2  502    0 -0.75232192673E+02 -0.79608381459E+02  0.14350216167E+04  0.14391957538E+04  0.00000000000E+00 0. -1.
          1    1    1    2  503    0  0.41134686333E+02 -0.69642055793E+00 -0.67194063374E+03  0.67319890277E+03  0.00000000000E+00 0. -1.
<mgrwt>
<rscale>  0 0.67087360E+02</rscale>
<asrwt>0</asrwt>
<pdfrwt beam="1">  1        2 0.45718793E+00 0.10939840E+03</pdfrwt>
<pdfrwt beam="2">  1        2 0.16235013E+00 0.41140581E+02</pdfrwt>
<totfact> 0.10472581E+01</totfact>
</mgrwt>
</event>
<event>
13    1  0.1595792E-008  0.3334980E+03  0.7546771E-02  0.1201558E+00
          2   -1    0    0  502    0  0.00000000000E+00  0.00000000000E+00  0.28500241074E+04  0.28500241074E+04  0.00000000000E+00 0. -1.
          2   -1    0    0  503    0 -0.00000000000E+00 -0.00000000000E+00 -0.15725471578E+04  0.15725471578E+04  0.00000000000E+00 0. -1.
         24    2    1    2    0    0 -0.10010527539E+03  0.28479206050E+03  0.11802086224E+03  0.34238793105E+03  0.11033126265E+03 0.  0.
         25    2    1    2    0    0  0.81687062280E+03 -0.49548036104E+03  0.64060240864E+03  0.11570544535E+04  0.12500063928E+03 0.  0.
         24    2    1    2    0    0 -0.10065974733E+04  0.39486318329E+02  0.10641282934E+04  0.14675156608E+04  0.80221862824E+02 0.  0.
        -11    1    5    5    0    0 -0.36615925622E+03  0.52763874472E+01  0.44209992642E+03  0.57406688297E+03  0.00000000000E+00 0.  1.
         12    1    5    5    0    0 -0.64043821711E+03  0.34209930882E+02  0.62202836693E+03  0.89344877781E+03  0.00000000000E+00 0. -1.
        -11    1    3    3    0    0  0.17737019069E+02  0.61047354430E+01  0.52603821872E+01  0.19481818730E+02  0.00000000000E+00 0.  1.
         12    1    3    3    0    0 -0.11784229446E+03  0.27868732505E+03  0.11276048005E+03  0.32290611232E+03  0.00000000000E+00 0. -1.
          5    1    4    4  501    0  0.81045809317E+03 -0.47102689400E+03  0.62874525251E+03  0.11287388264E+04  0.47000000000E+01 0. -1.
         -5    1    4    4    0  501  0.64125296323E+01 -0.24453467038E+02  0.11857156129E+02  0.28315627097E+02  0.47000000000E+01 0. -1.
          1    1    1    2  502    0  0.43027983176E+02 -0.50935959491E+02  0.42494571163E+03  0.43014501873E+03  0.00000000000E+00 0. -1.
          1    1    1    2  503    0  0.24680414275E+03  0.22213794171E+03 -0.97022032632E+03  0.10254682012E+04  0.00000000000E+00 0. -1.
<mgrwt>
<rscale>  0 0.14912004E+03</rscale>
<asrwt>0</asrwt>
<pdfrwt beam="1">  1        2 0.41912119E+00 0.66677427E+02</pdfrwt>
<pdfrwt beam="2">  1        2 0.23125693E+00 0.33349798E+03</pdfrwt>
<totfact> 0.77273406E+00</totfact>
</mgrwt>
</event>
<event>
13    1  0.1595792E-008  0.1954617E+03  0.7546771E-02  0.1281252E+00
          2   -1    0    0  503    0  0.00000000000E+00  0.00000000000E+00  0.48395885379E+04  0.48395885379E+04  0.00000000000E+00 0. -1.
          2   -1    0    0  502    0 -0.00000000000E+00 -0.00000000000E+00 -0.17894789764E+04  0.17894789764E+04  0.00000000000E+00 0. -1.
         24    2    1    2    0    0  0.30096950624E+02 -0.14822856267E+03  0.71802039424E+01  0.17124992730E+03  0.79984054940E+02 0.  0.
         25    2    1    2    0    0 -0.51307792851E+02  0.35620474098E+03  0.42360300705E+03  0.56971862941E+03  0.12500200801E+03 0.  0.
         24    2    1    2    0    0 -0.41934538490E+02  0.27002140798E+02  0.25038630470E+03  0.27350768315E+03  0.98109785619E+02 0.  0.
        -11    1    3    3    0    0 -0.27457569056E+02 -0.49748609185E+02  0.64007205636E+01  0.57182265065E+02  0.00000000000E+00 0.  1.
         12    1    3    3    0    0  0.57554519680E+02 -0.98479953482E+02  0.77948337886E+00  0.11406766223E+03  0.00000000000E+00 0. -1.
        -11    1    5    5    0    0 -0.59464869987E+01  0.45901068912E+02  0.21401404972E+03  0.21896182843E+03  0.00000000000E+00 0.  1.
         12    1    5    5    0    0 -0.35988051491E+02 -0.18898928114E+02  0.36372254981E+02  0.54545854713E+02  0.00000000000E+00 0. -1.
          5    1    4    4  501    0 -0.60500551946E+02  0.67175637736E+02  0.82162665043E+02  0.12225251170E+03  0.47000000000E+01 0. -1.
         -5    1    4    4    0  501  0.91927590957E+01  0.28902910324E+03  0.34144034201E+03  0.44746611770E+03  0.47000000000E+01 0. -1.
          1    1    1    2  502    0  0.58775032186E+02 -0.18446875950E+03 -0.16168894543E+04  0.16284393557E+04  0.00000000000E+00 0. -1.
          1    1    1    2  503    0  0.43703485308E+01 -0.50509559613E+02  0.39858295001E+04  0.39861519188E+04  0.00000000000E+00 0. -1.
<mgrwt>
<rscale>  0 0.99546845E+02</rscale>
<asrwt>0</asrwt>
<pdfrwt beam="1">  1        2 0.71170419E+00 0.50698280E+02</pdfrwt>
<pdfrwt beam="2">  1        2 0.26315867E+00 0.19546175E+03</pdfrwt>
<totfact> 0.33625796E-01</totfact>
</mgrwt>
</event>
<event>
13    1  0.1595792E-008  0.1233654E+03  0.7546771E-02  0.1310440E+00
          2   -1    0    0  503    0  0.00000000000E+00  0.00000000000E+00  0.25377293106E+04  0.25377293106E+04  0.00000000000E+00 0. -1.
         -3   -1    0    0    0  501 -0.00000000000E+00 -0.00000000000E+00 -0.49149986798E+03  0.49149986798E+03  0.00000000000E+00 0.  1.
         24    2    1    2    0    0  0.46552132378E+02 -0.19385825623E+02 -0.37284681321E+02  0.10034003210E+03  0.78326645002E+02 0.  0.
         25    2    1    2    0    0 -0.29837832576E+02 -0.28027499452E+03  0.62534123330E+03  0.69722343900E+03  0.12499798810E+03 0.  0.
         24    2    1    2    0    0  0.67025868123E+02  0.70929915642E+02  0.23135187451E+03  0.26371505881E+03  0.80612793500E+02 0.  0.
        -11    1    3    3    0    0 -0.20592342809E+02  0.41049327447E+01 -0.24694952298E+01  0.21142219890E+02  0.00000000000E+00 0.  1.
         12    1    3    3    0    0  0.67144475187E+02 -0.23490758367E+02 -0.34815186091E+02  0.79197812213E+02  0.00000000000E+00 0. -1.
        -13    1    5    5    0    0  0.50661802771E+02  0.72778738161E+02  0.11019282209E+03  0.14144193519E+03  0.00000000000E+00 0.  1.
         14    1    5    5    0    0  0.16364065352E+02 -0.18488225195E+01  0.12115905241E+03  0.12227312363E+03  0.00000000000E+00 0. -1.
          5    1    4    4  502    0 -0.76404760695E+02 -0.16399977059E+03  0.32968559108E+03  0.37609611959E+03  0.47000000000E+01 0. -1.
         -5    1    4    4    0  502  0.46566928119E+02 -0.11627522394E+03  0.29565564222E+03  0.32112731941E+03  0.47000000000E+01 0. -1.
          1    1    1    2  503    0  0.15753090941E+01  0.61247104224E+02  0.15729160881E+04  0.15741088621E+04  0.00000000000E+00 0. -1.
         -4    1    1    2    0  501 -0.85315477019E+02  0.16748380028E+03 -0.34609507201E+03  0.39384178656E+03  0.00000000000E+00 0.  1.
<mgrwt>
<rscale>  0 0.86938331E+02</rscale>
<asrwt>0</asrwt>
<pdfrwt beam="1">  1        2 0.37319548E+00 0.61267360E+02</pdfrwt>
<pdfrwt beam="2">  1       -3 0.72279393E-01 0.12336542E+03</pdfrwt>
<totfact> 0.60597841E+00</totfact>
</mgrwt>
</event>
<event>
13    1  0.1595792E-008  0.1146187E+03  0.7546771E-02  0.1312403E+00
          2   -1    0    0  503    0  0.00000000000E+00  0.00000000000E+00  0.27887127300E+04  0.27887127300E+04  0.00000000000E+00 0. -1.
          2   -1    0    0  502    0 -0.00000000000E+00 -0.00000000000E+00 -0.93540617023E+03  0.93540617023E+03  0.00000000000E+00 0. -1.
         24    2    1    2    0    0 -0.41101444881E+02  0.27316923911E+02 -0.11972190716E+03  0.15188176518E+03  0.79367452004E+02 0.  0.
         25    2    1    2    0    0 -0.58878559866E+02 -0.11882848350E+03  0.26385440875E+02  0.18414568426E+03  0.12500619279E+03 0.  0.
         24    2    1    2    0    0 -0.86501566673E+02 -0.13325082055E+02  0.32818837036E+03  0.34452287698E+03  0.57691658613E+02 0.  0.
        -11    1    3    3    0    0 -0.34887499263E+01 -0.16505369786E+02 -0.80072829060E+02  0.81830657834E+02  0.00000000000E+00 0.  1.
         12    1    3    3    0    0 -0.37612694955E+02  0.43822293697E+02 -0.39649078101E+02  0.70051107350E+02  0.00000000000E+00 0. -1.
        -13    1    5    5    0    0 -0.28233219072E+02 -0.16573270573E+02  0.46598177972E+02  0.56948908216E+02  0.00000000000E+00 0.  1.
         14    1    5    5    0    0 -0.58268347601E+02  0.32481885182E+01  0.28159019239E+03  0.28757396877E+03  0.00000000000E+00 0. -1.
          5    1    4    4  501    0 -0.21161190079E+02 -0.82006826777E+02 -0.44419055353E+02  0.95749976929E+02  0.47000000000E+01 0. -1.
         -5    1    4    4    0  501 -0.37717369787E+02 -0.36821656725E+02  0.70804496228E+02  0.88395707326E+02  0.47000000000E+01 0. -1.
          1    1    1    2  502    0  0.59467660747E+02 -0.25694403921E+02 -0.70751736772E+03  0.71047690371E+03  0.00000000000E+00 0. -1.
          1    1    1    2  503    0  0.12701391067E+03  0.13053104557E+03  0.23259720234E+04  0.23330916701E+04  0.00000000000E+00 0. -1.
<mgrwt>
<rscale>  0 0.86169257E+02</rscale>
<asrwt>0</asrwt>
<pdfrwt beam="1">  1        2 0.41010481E+00 0.11461874E+03</pdfrwt>
<pdfrwt beam="2">  1        2 0.13755973E+00 0.64781209E+02</pdfrwt>
<totfact> 0.18627758E+01</totfact>
</mgrwt>
</event>
<event>
13    1  0.1595792E-008  0.1005955E+03  0.7546771E-02  0.1284033E+00
          2   -1    0    0  503    0  0.00000000000E+00  0.00000000000E+00  0.36060625543E+04  0.36060625543E+04  0.00000000000E+00 0. -1.
          2   -1    0    0  502    0 -0.00000000000E+00 -0.00000000000E+00 -0.34583432085E+03  0.34583432085E+03  0.00000000000E+00 0. -1.
         24    2    1    2    0    0  0.12361307387E+03  0.33850206332E+02 -0.10114166439E+03  0.18215441897E+03  0.80774795418E+02 0.  0.
         25    2    1    2    0    0 -0.23074399842E+03 -0.59856973066E+02  0.66201409976E+03  0.71464643167E+03  0.12502481345E+03 0.  0.
         24    2    1    2    0    0  0.10676075380E+03  0.14503860225E+02  0.51618784428E+03  0.53335435450E+03  0.80054708582E+02 0.  0.
        -13    1    5    5    0    0  0.60289767858E+02 -0.11445732976E+02  0.41007196449E+03  0.41463824832E+03  0.00000000000E+00 0.  1.
         14    1    5    5    0    0  0.46470985942E+02  0.25949593201E+02  0.10611587979E+03  0.11871610617E+03  0.00000000000E+00 0. -1.
        -13    1    3    3    0    0  0.60523011082E+02 -0.13812376911E+02 -0.12415870276E+02  0.63308533872E+02  0.00000000000E+00 0.  1.
         14    1    3    3    0    0  0.63090062787E+02  0.47662583242E+02 -0.88725794109E+02  0.11884588510E+03  0.00000000000E+00 0. -1.
          5    1    4    4  501    0 -0.42887164581E+02  0.19120456976E+02  0.25626311485E+03  0.26057201460E+03  0.47000000000E+01 0.  1.
         -5    1    4    4    0  501 -0.18785683384E+03 -0.78977430042E+02  0.40575098492E+03  0.45407441707E+03  0.47000000000E+01 0.  1.
          1    1    1    2  502    0 -0.83376585083E+02  0.58325745916E+02 -0.15292268111E+03  0.18368150145E+03  0.00000000000E+00 0. -1.
          1    1    1    2  503    0  0.83746755836E+02 -0.46822839407E+02  0.23360906349E+04  0.23380601686E+04  0.00000000000E+00 0. -1.
<mgrwt>
<rscale>  0 0.98243951E+02</rscale>
<asrwt>0</asrwt>
<pdfrwt beam="1">  1        2 0.53030330E+00 0.95947368E+02</pdfrwt>
<pdfrwt beam="2">  1        2 0.50857990E-01 0.10059550E+03</pdfrwt>
<totfact> 0.20184161E+01</totfact>
</mgrwt>
</event>
<event>
13    1  0.1595792E-008  0.1580699E+03  0.7546771E-02  0.1267028E+00
          2   -1    0    0  502    0  0.00000000000E+00  0.00000000000E+00  0.19072559816E+04  0.19072559816E+04  0.00000000000E+00 0. -1.
          2   -1    0    0  503    0 -0.00000000000E+00 -0.00000000000E+00 -0.29014991953E+04  0.29014991953E+04  0.00000000000E+00 0. -1.
         24    2    1    2    0    0  0.53022839420E+02 -0.10283019675E+03 -0.65071772935E+03  0.66584967593E+03  0.80850212029E+02 0.  0.
         25    2    1    2    0    0 -0.22474947796E+03  0.20224251528E+03 -0.14060284893E+03  0.35610226197E+03  0.12500118809E+03 0.  0.
         24    2    1    2    0    0  0.17750311607E+02 -0.92201527105E+02  0.25103923668E+03  0.28008492320E+03  0.81306031076E+02 0.  0.
        -11    1    3    3    0    0  0.63550114827E+02 -0.95884270390E+02 -0.63663854476E+03  0.64694748402E+03  0.00000000000E+00 0.  1.
         12    1    3    3    0    0 -0.10527275408E+02 -0.69459263558E+01 -0.14079184592E+02  0.18902191916E+02  0.00000000000E+00 0. -1.
        -11    1    5    5    0    0 -0.17146096176E+02 -0.68321604796E+02  0.20861527443E+03  0.22018665496E+03  0.00000000000E+00 0.  1.
         12    1    5    5    0    0  0.34896407784E+02 -0.23879922309E+02  0.42423962253E+02  0.59898268246E+02  0.00000000000E+00 0. -1.
          5    1    4    4  501    0 -0.45540159775E+02  0.12032869008E+03 -0.40009595223E+02  0.13481749708E+03  0.47000000000E+01 0. -1.
         -5    1    4    4    0  501 -0.17920931818E+03  0.81913825205E+02 -0.10059325371E+03  0.22128476489E+03  0.47000000000E+01 0. -1.
          1    1    1    2  502    0  0.10833237311E+03 -0.62724405226E+02  0.15231576513E+04  0.15282929971E+04  0.00000000000E+00 0. -1.
          1    1    1    2  503    0  0.45643953817E+02  0.55513613795E+02 -0.19771195235E+04  0.19784253188E+04  0.00000000000E+00 0. -1.
<mgrwt>
<rscale>  0 0.10658472E+03</rscale>
<asrwt>0</asrwt>
<pdfrwt beam="1">  1        2 0.28047882E+00 0.15806989E+03</pdfrwt>
<pdfrwt beam="2">  1        2 0.42669106E+00 0.71868852E+02</pdfrwt>
<totfact> 0.51911114E+00</totfact>
</mgrwt>
</event>
<event>
13    1  0.1595792E-008  0.2612796E+03  0.7546771E-02  0.1215579E+00
          2   -1    0    0  503    0  0.00000000000E+00  0.00000000000E+00  0.14898773947E+04  0.14898773947E+04  0.00000000000E+00 0. -1.
          2   -1    0    0  502    0 -0.00000000000E+00 -0.00000000000E+00 -0.12923033558E+04  0.12923033558E+04  0.00000000000E+00 0. -1.
         24    2    1    2    0    0 -0.14748512637E+02  0.19149280104E+02 -0.39086865970E+03  0.39972620773E+03  0.80115656772E+02 0.  0.
         25    2    1    2    0    0  0.23113323145E+03  0.14133550458E+03 -0.36142188473E+03  0.46866724840E+03  0.12499966169E+03 0.  0.
         24    2    1    2    0    0  0.10128973595E+03 -0.77972931675E+02  0.75122876231E+02  0.16884367364E+03  0.80779644166E+02 0.  0.
        -11    1    3    3    0    0  0.72837054066E+00  0.40361346130E+02 -0.10247203964E+03  0.11013667733E+03  0.00000000000E+00 0.  1.
         12    1    3    3    0    0 -0.15476883178E+02 -0.21212066026E+02 -0.28839662006E+03  0.28958953040E+03  0.00000000000E+00 0. -1.
        -13    1    5    5    0    0  0.71464681477E+02 -0.86592725089E+02  0.79388250589E+02  0.13750634556E+03  0.00000000000E+00 0.  1.
         14    1    5    5    0    0  0.29825054477E+02  0.86197934134E+01 -0.42653743572E+01  0.31337328084E+02  0.00000000000E+00 0. -1.
          5    1    4    4  501    0  0.10329626894E+03  0.10918024960E+03 -0.11552761097E+03  0.18962901934E+03  0.47000000000E+01 0. -1.
         -5    1    4    4    0  501  0.12783696252E+03  0.32155254977E+02 -0.24589427376E+03  0.27903822906E+03  0.47000000000E+01 0. -1.
          1    1    1    2  502    0 -0.58983904114E+02 -0.43430378818E+02 -0.41882652564E+03  0.42518343962E+03  0.00000000000E+00 0. -1.
          1    1    1    2  503    0 -0.25869055066E+03 -0.39081474192E+02  0.12935682328E+04  0.13197601811E+04  0.00000000000E+00 0. -1.
<mgrwt>
<rscale>  0 0.13834110E+03</rscale>
<asrwt>0</asrwt>
<pdfrwt beam="1">  1        2 0.21909962E+00 0.26127958E+03</pdfrwt>
<pdfrwt beam="2">  1        2 0.19004461E+00 0.73248200E+02</pdfrwt>
<totfact> 0.48948591E+01</totfact>
</mgrwt>
</event>
<event>
13    1  0.1595792E-008  0.1006758E+03  0.7546771E-02  0.1302350E+00
          2   -1    0    0  503    0  0.00000000000E+00  0.00000000000E+00  0.13901562510E+04  0.13901562510E+04  0.00000000000E+00 0. -1.
         -3   -1    0    0    0  501 -0.00000000000E+00 -0.00000000000E+00 -0.31015778639E+03  0.31015778639E+03  0.00000000000E+00 0.  1.
         24    2    1    2    0    0 -0.25925521004E+01  0.55847984755E+02 -0.53036570800E+02  0.11228657829E+03  0.81668103283E+02 0.  0.
         25    2    1    2    0    0 -0.64003167545E+02  0.10372333536E+03  0.53128699522E+02  0.18248984859E+03  0.12499980148E+03 0.  0.
         24    2    1    2    0    0  0.71608592358E+01  0.27124510215E+02  0.19978086801E+02  0.10594122093E+03  0.10018683237E+03 0.  0.
        -13    1    5    5    0    0 -0.42394172247E+02  0.19275835694E+02  0.29144000969E+02  0.54938114954E+02  0.00000000000E+00 0.  1.
         14    1    5    5    0    0  0.49555031483E+02  0.78486745206E+01 -0.91659141676E+01  0.51003105979E+02  0.00000000000E+00 0. -1.
        -13    1    3    3    0    0 -0.26980411416E+02  0.41438324918E+00 -0.43195617700E+02  0.50931087777E+02  0.00000000000E+00 0.  1.
         14    1    3    3    0    0  0.24387859316E+02  0.55433601506E+02 -0.98409531001E+01  0.61355490511E+02  0.00000000000E+00 0. -1.
          5    1    4    4  502    0 -0.10139603580E+03  0.66516627743E+02  0.41606673047E+02  0.12829194474E+03  0.47000000000E+01 0. -1.
         -5    1    4    4    0  502  0.37392868253E+02  0.37206707619E+02  0.11522026474E+02  0.54197903853E+02  0.47000000000E+01 0. -1.
          1    1    1    2  503    0 -0.65714166701E+01 -0.80559845525E+02  0.11453558847E+04  0.11482043263E+04  0.00000000000E+00 0. -1.
         -4    1    1    2    0  501  0.66006277079E+02 -0.10613598481E+03 -0.85427635661E+02  0.15139206326E+03  0.00000000000E+00 0.  1.
<mgrwt>
<rscale>  0 0.90207355E+02</rscale>
<asrwt>0</asrwt>
<pdfrwt beam="1">  1        2 0.20443474E+00 0.80827423E+02</pdfrwt>
<pdfrwt beam="2">  1       -3 0.45611440E-01 0.10067582E+03</pdfrwt>
<totfact> 0.52935343E+01</totfact>
</mgrwt>
</event>
<event>
13    1  0.1595792E-008  0.1582534E+03  0.7546771E-02  0.1399482E+00
          2   -1    0    0  502    0  0.00000000000E+00  0.00000000000E+00  0.11159579759E+04  0.11159579759E+04  0.00000000000E+00 0. -1.
          2   -1    0    0  503    0 -0.00000000000E+00 -0.00000000000E+00 -0.23167805061E+04  0.23167805061E+04  0.00000000000E+00 0. -1.
         24    2    1    2    0    0 -0.83567096832E+02 -0.81273124647E+02 -0.25976097509E+03  0.29553930518E+03  0.79239739157E+02 0.  0.
         25    2    1    2    0    0 -0.15660706627E+03 -0.84876726435E+02  0.32015890768E+03  0.38711275623E+03  0.12499891191E+03 0.  0.
         24    2    1    2    0    0  0.37195811703E+02 -0.11319355221E+02  0.64779178453E+03  0.65394870184E+03  0.80641504926E+02 0.  0.
        -13    1    3    3    0    0 -0.96720210834E+02 -0.64831423622E+02 -0.23956826740E+03  0.26636604028E+03  0.00000000000E+00 0.  1.
         14    1    3    3    0    0  0.13153114002E+02 -0.16441701025E+02 -0.20192707694E+02  0.29173264894E+02  0.00000000000E+00 0. -1.
        -13    1    5    5    0    0  0.24439067702E+01  0.19419351685E+02  0.46327733735E+03  0.46369060289E+03  0.00000000000E+00 0.  1.
         14    1    5    5    0    0  0.34751904933E+02 -0.30738706905E+02  0.18451444718E+03  0.19025809895E+03  0.00000000000E+00 0. -1.
          5    1    4    4  501    0 -0.51967852381E+02 -0.23836073767E+02  0.15807530171E+02  0.59504488098E+02  0.47000000000E+01 0. -1.
         -5    1    4    4    0  501 -0.10463921389E+03 -0.61040652668E+02  0.30435137751E+03  0.32760826814E+03  0.47000000000E+01 0. -1.
          1    1    1    2  502    0 -0.14286069601E+02 -0.17321093838E+02  0.81405178124E+02  0.84444745851E+02  0.00000000000E+00 0. -1.
          1    1    1    2  503    0  0.21726442100E+03  0.19479030014E+03 -0.19904174254E+04  0.20116929729E+04  0.00000000000E+00 0. -1.
<mgrwt>
<rscale>  0 0.59608509E+02</rscale>
<asrwt>0</asrwt>
<pdfrwt beam="1">  1        2 0.16411147E+00 0.22452440E+02</pdfrwt>
<pdfrwt beam="2">  1        2 0.34070301E+00 0.15825337E+03</pdfrwt>
<totfact> 0.26195138E+01</totfact>
</mgrwt>
</event>
<event>
13    1  0.1595792E-008  0.1543804E+03  0.7546771E-02  0.1430352E+00
          2   -1    0    0  502    0  0.00000000000E+00  0.00000000000E+00  0.26706926902E+04  0.26706926902E+04  0.00000000000E+00 0. -1.
          2   -1    0    0  503    0 -0.00000000000E+00 -0.00000000000E+00 -0.37398797513E+03  0.37398797513E+03  0.00000000000E+00 0. -1.
         24    2    1    2    0    0  0.43725028476E+02  0.10579713151E+03  0.12248047569E+03  0.18619550909E+03  0.81008576888E+02 0.  0.
         25    2    1    2    0    0  0.16687818653E+03  0.11527515636E+03  0.68189649279E+03  0.72231866170E+03  0.12499892538E+03 0.  0.
         24    2    1    2    0    0  0.29329149718E+01 -0.14810613830E+03  0.14200728094E+04  0.14300536243E+04  0.80638416147E+02 0.  0.
        -11    1    3    3    0    0  0.19142091143E+02  0.85198566963E+02  0.12666861811E+03  0.15385107826E+03  0.00000000000E+00 0.  1.
         12    1    3    3    0    0  0.24582937334E+02  0.20598564548E+02 -0.41881424178E+01  0.32344430839E+02  0.00000000000E+00 0. -1.
        -11    1    5    5    0    0  0.31284422331E+01 -0.61605922715E+02  0.28050050303E+03  0.28720307983E+03  0.00000000000E+00 0.  1.
         12    1    5    5    0    0 -0.19552726130E+00 -0.86500215586E+02  0.11395723064E+04  0.11428505445E+04  0.00000000000E+00 0. -1.
          5    1    4    4  501    0  0.64475985576E+02  0.70934845143E+00  0.90195458889E+02  0.11097281962E+03  0.47000000000E+01 0. -1.
         -5    1    4    4    0  501  0.10240220095E+03  0.11456580791E+03  0.59170103390E+03  0.61134584207E+03  0.47000000000E+01 0. -1.
          1    1    1    2  502    0 -0.72777834920E+01 -0.16593699072E+02  0.35285982648E+03  0.35332474315E+03  0.00000000000E+00 0. -1.
          1    1    1    2  503    0 -0.20625834649E+03 -0.56372450496E+02 -0.28060488934E+03  0.35278812705E+03  0.00000000000E+00 0. -1.
<mgrwt>
<rscale>  0 0.52889490E+02</rscale>
<asrwt>0</asrwt>
<pdfrwt beam="1">  1        2 0.39274891E+00 0.18119519E+02</pdfrwt>
<pdfrwt beam="2">  1        2 0.54998233E-01 0.15438037E+03</pdfrwt>
<totfact> 0.78521550E+01</totfact>
</mgrwt>
</event>
<event>
13    1  0.1595792E-008  0.1308555E+03  0.7546771E-02  0.1362380E+00
          2   -1    0    0  503    0  0.00000000000E+00  0.00000000000E+00  0.20063986121E+04  0.20063986121E+04  0.00000000000E+00 0. -1.
          2   -1    0    0  502    0 -0.00000000000E+00 -0.00000000000E+00 -0.14927311272E+04  0.14927311272E+04  0.00000000000E+00 0. -1.
         24    2    1    2    0    0  0.25141428704E+02  0.35629210061E+02 -0.60068681323E+03  0.60776373284E+03  0.81551059574E+02 0.  0.
         25    2    1    2    0    0  0.11695707592E+03 -0.15235718708E+03 -0.50326709649E+03  0.55298142213E+03  0.12497604870E+03 0.  0.
         24    2    1    2    0    0 -0.43860677959E+02  0.34806006305E+02  0.43753622471E+03  0.44828826353E+03  0.79932484875E+02 0.  0.
        -11    1    5    5    0    0 -0.10900365938E+01 -0.20278855414E+02  0.42014464463E+02  0.46665140959E+02  0.00000000000E+00 0.  1.
         12    1    5    5    0    0 -0.42770641365E+02  0.55084861718E+02  0.39552176025E+03  0.40162312257E+03  0.00000000000E+00 0. -1.
        -13    1    3    3    0    0 -0.16908474992E+02 -0.13308174593E+02 -0.26902420499E+03  0.26988335797E+03  0.00000000000E+00 0.  1.
         14    1    3    3    0    0  0.42049903696E+02  0.48937384654E+02 -0.33166260824E+03  0.33788037487E+03  0.00000000000E+00 0. -1.
          5    1    4    4  501    0  0.47532131243E+02 -0.13927337504E+03 -0.25130782430E+03  0.29126292083E+03  0.47000000000E+01 0. -1.
         -5    1    4    4    0  501  0.69424944677E+02 -0.13083812037E+02 -0.25195927218E+03  0.26171850129E+03  0.47000000000E+01 0. -1.
          1    1    1    2  502    0  0.13796171671E+02  0.34045449988E+02 -0.35162985202E+03  0.35354346246E+03  0.00000000000E+00 0. -1.
          1    1    1    2  503    0 -0.11203399833E+03  0.47876520724E+02  0.15317150220E+04  0.15365528584E+04  0.00000000000E+00 0. -1.
<mgrwt>
<rscale>  0 0.69331945E+02</rscale>
<asrwt>0</asrwt>
<pdfrwt beam="1">  1        2 0.29505862E+00 0.13085553E+03</pdfrwt>
<pdfrwt beam="2">  1        2 0.21951928E+00 0.36734548E+02</pdfrwt>
<totfact> 0.24132317E+01</totfact>
</mgrwt>
</event>
<event>
13    1  0.1595792E-008  0.6803436E+02  0.7546771E-02  0.1641850E+00
          4   -1    0    0  503    0 -0.00000000000E+00  0.00000000000E+00  0.13483176880E+04  0.13483176880E+04  0.00000000000E+00 0. -1.
          2   -1    0    0  502    0  0.00000000000E+00 -0.00000000000E+00 -0.24281130565E+04  0.24281130565E+04  0.00000000000E+00 0. -1.
         24    2    1    2    0    0 -0.56403572631E+00 -0.65042485162E+02  0.28552518514E+03  0.30361570373E+03  0.80168704545E+02 0.  0.
         25    2    1    2    0    0 -0.18925561598E+02 -0.13475295785E+02 -0.66126429438E+02  0.14331514848E+03  0.12500706635E+03 0.  0.
         24    2    1    2    0    0  0.17441415705E+02  0.16183907425E+02 -0.55678990865E+03  0.56318935697E+03  0.81247323619E+02 0.  0.
        -11    1    5    5    0    0 -0.18204700691E+02 -0.14940421402E+02 -0.36078483794E+03  0.36155266090E+03  0.00000000000E+00 0.  1.
         12    1    5    5    0    0  0.35646116396E+02  0.31124328827E+02 -0.19600507071E+03  0.20163669607E+03  0.00000000000E+00 0. -1.
        -13    1    3    3    0    0 -0.28916005531E+02 -0.66357854303E+02  0.17229476614E+03  0.18688228017E+03  0.00000000000E+00 0.  1.
         14    1    3    3    0    0  0.28351969804E+02  0.13153691405E+01  0.11323041900E+03  0.11673342356E+03  0.00000000000E+00 0. -1.
          5    1    4    4  501    0 -0.23697061733E+02  0.49482413865E+02 -0.49700044487E+01  0.55288795979E+02  0.47000000000E+01 0.  1.
         -5    1    4    4    0  501  0.47715001350E+01 -0.62957709649E+02 -0.61156424990E+02  0.88026352505E+02  0.47000000000E+01 0.  1.
          1    1    1    2  502    0 -0.66532657787E+01  0.67720472081E+02 -0.17536716429E+04  0.17549913275E+04  0.00000000000E+00 0. -1.
          3    1    1    2  503    0  0.87014473981E+01 -0.53865985591E+01  0.10112674273E+04  0.10113192079E+04  0.00000000000E+00 0. -1.
<mgrwt>
<rscale>  0 0.26386547E+02</rscale>
<asrwt>0</asrwt>
<pdfrwt beam="2">  1        2 0.35707545E+00 0.68034356E+02</pdfrwt>
<pdfrwt beam="1">  1        4 0.19828201E+00 0.10233798E+02</pdfrwt>
<totfact> 0.43031443E-01</totfact>
</mgrwt>
</event>
<event>
13    1  0.1595792E-008  0.1074755E+03  0.7546771E-02  0.1379972E+00
          2   -1    0    0  503    0  0.00000000000E+00  0.00000000000E+00  0.93910939714E+03  0.93910939714E+03  0.00000000000E+00 0. -1.
          2   -1    0    0  502    0 -0.00000000000E+00 -0.00000000000E+00 -0.16170769743E+04  0.16170769743E+04  0.00000000000E+00 0. -1.
         24    2    1    2    0    0 -0.18643297540E+02 -0.25144149987E+02 -0.41437551914E+03  0.42327195982E+03  0.80450483447E+02 0.  0.
         25    2    1    2    0    0  0.11952006654E+03 -0.75667452055E+02 -0.48421503547E+02  0.19488846522E+03  0.12500504896E+03 0.  0.
         24    2    1    2    0    0  0.51912962178E+01  0.12103532448E+02  0.15076671609E+03  0.17136097811E+03  0.80377466270E+02 0.  0.
        -13    1    3    3    0    0 -0.52484757704E+01  0.24121510436E+02 -0.24835198508E+03  0.24957584470E+03  0.00000000000E+00 0.  1.
         14    1    3    3    0    0 -0.13394821770E+02 -0.49265660423E+02 -0.16602353406E+03  0.17369611512E+03  0.00000000000E+00 0. -1.
        -13    1    5    5    0    0  0.37748004538E+02  0.98359154309E+00  0.38441804623E+02  0.53885542046E+02  0.00000000000E+00 0.  1.
         14    1    5    5    0    0 -0.32556708320E+02  0.11119940905E+02  0.11232491146E+03  0.11747543606E+03  0.00000000000E+00 0. -1.
          5    1    4    4  501    0 -0.25627033152E+02 -0.41414164273E+01 -0.18773606104E+01  0.26448263479E+02  0.47000000000E+01 0.  1.
         -5    1    4    4    0  501  0.14514709969E+03 -0.71526035628E+02 -0.46544142936E+02  0.16844020174E+03  0.47000000000E+01 0.  1.
          1    1    1    2  502    0  0.22778356844E+02  0.31254457775E+02 -0.10588402317E+04  0.10595462854E+04  0.00000000000E+00 0. -1.
          1    1    1    2  503    0 -0.12884642206E+03  0.57453611819E+02  0.69290296119E+03  0.70711868283E+03  0.00000000000E+00 0. -1.
<mgrwt>
<rscale>  0 0.64471153E+02</rscale>
<asrwt>0</asrwt>
<pdfrwt beam="1">  1        2 0.13810432E+00 0.10747548E+03</pdfrwt>
<pdfrwt beam="2">  1        2 0.23780544E+00 0.38674212E+02</pdfrwt>
<totfact> 0.75473992E+01</totfact>
</mgrwt>
</event>
<event>
13    1  0.1595792E-008  0.1219360E+03  0.7546771E-02  0.1459505E+00
          2   -1    0    0  502    0  0.00000000000E+00  0.00000000000E+00  0.13970917394E+04  0.13970917394E+04  0.00000000000E+00 0. -1.
          2   -1    0    0  503    0 -0.00000000000E+00 -0.00000000000E+00 -0.38456083773E+04  0.38456083773E+04  0.00000000000E+00 0. -1.
         24    2    1    2    0    0  0.72421703095E+02  0.16108919065E+03 -0.77383228095E+03  0.79786840712E+03  0.81135476913E+02 0.  0.
         25    2    1    2    0    0 -0.16621070433E+03 -0.18829823761E+03  0.63766539769E+03  0.69665512928E+03  0.12501593982E+03 0.  0.
         24    2    1    2    0    0  0.12438675392E+03 -0.88062980658E+02  0.15821154050E+03  0.23530474219E+03  0.84322458668E+02 0.  0.
        -13    1    3    3    0    0  0.37713693835E+02  0.15441238511E+03 -0.64108852388E+03  0.66049981289E+03  0.00000000000E+00 0.  1.
         14    1    3    3    0    0  0.34708009261E+02  0.66768055392E+01 -0.13274375707E+03  0.13736859423E+03  0.00000000000E+00 0. -1.
        -13    1    5    5    0    0  0.74951768267E+01 -0.46546209326E+02  0.64239209032E+02  0.79683142855E+02  0.00000000000E+00 0.  1.
         14    1    5    5    0    0  0.11689157709E+03 -0.41516771332E+02  0.93972331466E+02  0.15562159933E+03  0.00000000000E+00 0. -1.
          5    1    4    4  501    0 -0.89119712859E+02 -0.43156937364E+02  0.13297008293E+03  0.16585529059E+03  0.47000000000E+01 0. -1.
         -5    1    4    4    0  501 -0.77090991472E+02 -0.14514130024E+03  0.50469531477E+03  0.53079983869E+03  0.47000000000E+01 0. -1.
          1    1    1    2  502    0  0.18144004425E+02  0.34953229246E+01  0.51974845026E+03  0.52007679599E+03  0.00000000000E+00 0. -1.
          1    1    1    2  503    0 -0.48741757110E+02  0.11177670469E+03 -0.29903097454E+04  0.29927950421E+04  0.00000000000E+00 0. -1.
<mgrwt>
<rscale>  0 0.47466689E+02</rscale>
<asrwt>0</asrwt>
<pdfrwt beam="1">  1        2 0.20545467E+00 0.18477613E+02</pdfrwt>
<pdfrwt beam="2">  1        2 0.56553065E+00 0.12193602E+03</pdfrwt>
<totfact> 0.28716385E+00</totfact>
</mgrwt>
</event>
<event>
13    1  0.1595792E-008  0.1045607E+03  0.7546771E-02  0.1388815E+00
         -3   -1    0    0    0  501 -0.00000000000E+00  0.00000000000E+00  0.11800546905E+04  0.11800546905E+04  0.00000000000E+00 0.  1.
          2   -1    0    0  503    0  0.00000000000E+00 -0.00000000000E+00 -0.29241498988E+04  0.29241498988E+04  0.00000000000E+00 0. -1.
         24    2    1    2    0    0  0.18386839909E+03 -0.14235106209E+03  0.88065964081E+02  0.26169553397E+03  0.81593660320E+02 0.  0.
         25    2    1    2    0    0 -0.26598930653E+03  0.24427954969E+03  0.12502336234E+03  0.40209248492E+03  0.12499886284E+03 0.  0.
         24    2    1    2    0    0  0.94209318267E+02  0.18862616684E+02 -0.91935122134E+03  0.92798384276E+03  0.81952121907E+02 0.  0.
        -11    1    3    3    0    0  0.61648941100E+02 -0.96609980103E+02  0.27660706103E+02  0.11789484661E+03  0.00000000000E+00 0.  1.
         12    1    3    3    0    0  0.12221945799E+03 -0.45741081990E+02  0.60405257978E+02  0.14380068736E+03  0.00000000000E+00 0. -1.
        -11    1    5    5    0    0 -0.11583798792E+02 -0.59446764528E+01 -0.43183613650E+02  0.45103747743E+02  0.00000000000E+00 0.  1.
         12    1    5    5    0    0  0.10579311706E+03  0.24807293137E+02 -0.87616760769E+03  0.88288009502E+03  0.00000000000E+00 0. -1.
          5    1    4    4  502    0 -0.13346218741E+03  0.17958845541E+03  0.28098359362E+02  0.22555659286E+03  0.47000000000E+01 0.  1.
         -5    1    4    4    0  502 -0.13252711912E+03  0.64691094277E+02  0.96925002973E+02  0.17653589205E+03  0.47000000000E+01 0.  1.
          1    1    1    2  503    0  0.20116086218E+02 -0.10256614179E+03 -0.17731288151E+04  0.17762067068E+04  0.00000000000E+00 0. -1.
         -4    1    1    2    0  501 -0.32204497047E+02 -0.18224962490E+02  0.73529550176E+03  0.73622602087E+03  0.00000000000E+00 0.  1.
<mgrwt>
<rscale>  0 0.62202423E+02</rscale>
<asrwt>0</asrwt>
<pdfrwt beam="2">  1        2 0.43002203E+00 0.10456074E+03</pdfrwt>
<pdfrwt beam="1">  1       -3 0.17353746E+00 0.37003769E+02</pdfrwt>
<totfact> 0.47137898E-01</totfact>
</mgrwt>
</event>
<event>
13    1  0.1595792E-008  0.1227914E+03  0.7546771E-02  0.1261202E+00
          2   -1    0    0  503    0  0.00000000000E+00  0.00000000000E+00  0.21062925071E+04  0.21062925071E+04  0.00000000000E+00 0. -1.
          2   -1    0    0  502    0 -0.00000000000E+00 -0.00000000000E+00 -0.81649025232E+03  0.81649025232E+03  0.00000000000E+00 0. -1.
         24    2    1    2    0    0 -0.93018315515E+02  0.64319118396E+02 -0.41733746595E+03  0.43955617779E+03  0.79055151230E+02 0.  0.
         25    2    1    2    0    0 -0.11459542782E+03 -0.13179034893E+03  0.31040720723E+03  0.37746855550E+03  0.12501627071E+03 0.  0.
         24    2    1    2    0    0  0.12437230617E+02  0.29482632051E+02  0.12561170688E+03  0.15276512103E+03  0.80839167483E+02 0.  0.
        -11    1    3    3    0    0  0.93196610675E+01 -0.82919596722E+01 -0.35315258087E+02  0.37453706511E+02  0.00000000000E+00 0.  1.
         12    1    3    3    0    0 -0.10233797658E+03  0.72611078068E+02 -0.38202220786E+03  0.40210247128E+03  0.00000000000E+00 0. -1.
        -11    1    5    5    0    0 -0.15169521449E+02  0.50101114993E+02  0.79919266663E+02  0.95537036214E+02  0.00000000000E+00 0.  1.
         12    1    5    5    0    0  0.27606752067E+02 -0.20618482942E+02  0.45692440214E+02  0.57228084812E+02  0.00000000000E+00 0. -1.
          5    1    4    4  501    0 -0.42561364181E+02 -0.86872944303E+01  0.99034436134E+01  0.44800747771E+02  0.47000000000E+01 0. -1.
         -5    1    4    4    0  501 -0.72034063644E+02 -0.12310305450E+03  0.30050376361E+03  0.33266780773E+03  0.47000000000E+01 0. -1.
          1    1    1    2  502    0  0.95547397883E+02  0.73055763679E+02 -0.32853213817E+03  0.34985685024E+03  0.00000000000E+00 0. -1.
          1    1    1    2  503    0  0.99629114839E+02 -0.35067165196E+02  0.15996529448E+04  0.16031360549E+04  0.00000000000E+00 0. -1.
<mgrwt>
<rscale>  0 0.10965929E+03</rscale>
<asrwt>0</asrwt>
<pdfrwt beam="1">  1        2 0.30974890E+00 0.97931606E+02</pdfrwt>
<pdfrwt beam="2">  1        2 0.12007210E+00 0.12279141E+03</pdfrwt>
<totfact> 0.47906968E+01</totfact>
</mgrwt>
</event>
<event>
13    1  0.1595792E-008  0.9538263E+02  0.7546771E-02  0.1312709E+00
          2   -1    0    0  503    0  0.00000000000E+00  0.00000000000E+00  0.31546612730E+04  0.31546612730E+04  0.00000000000E+00 0. -1.
          2   -1    0    0  502    0 -0.00000000000E+00 -0.00000000000E+00 -0.14812528703E+04  0.14812528703E+04  0.00000000000E+00 0. -1.
         24    2    1    2    0    0  0.62681420957E+01  0.42916753937E+00 -0.36372363945E+03  0.37212222074E+03  0.78361900714E+02 0.  0.
         25    2    1    2    0    0  0.12578444079E+03  0.53135344579E+02 -0.61478417495E+03  0.64205097153E+03  0.12499911153E+03 0.  0.
         24    2    1    2    0    0  0.58778493705E+01  0.51172417497E+02  0.85040891919E+03  0.85606460013E+03  0.83654673080E+02 0.  0.
        -11    1    5    5    0    0  0.38911102481E+02  0.21402774106E+02  0.60734706390E+03  0.60896847920E+03  0.00000000000E+00 0.  1.
         12    1    5    5    0    0 -0.33033253110E+02  0.29769643390E+02  0.24306185529E+03  0.24709612092E+03  0.00000000000E+00 0. -1.
        -13    1    3    3    0    0 -0.31317825280E+02  0.20579118372E+01 -0.80350419123E+02  0.86262570300E+02  0.00000000000E+00 0.  1.
         14    1    3    3    0    0  0.37585967376E+02 -0.16287442978E+01 -0.28337322032E+03  0.28585965044E+03  0.00000000000E+00 0. -1.
          5    1    4    4  501    0  0.10500919823E+03  0.73968976223E+02 -0.30689592815E+03  0.33272442332E+03  0.47000000000E+01 0. -1.
         -5    1    4    4    0  501  0.20775242561E+02 -0.20833631644E+02 -0.30788824680E+03  0.30932654821E+03  0.47000000000E+01 0. -1.
          1    1    1    2  502    0 -0.57275253912E+02 -0.54031208262E+02 -0.47786771308E+03  0.48431124020E+03  0.00000000000E+00 0. -1.
          1    1    1    2  503    0 -0.80655178342E+02 -0.50705721352E+02  0.22793750110E+04  0.22813651108E+04  0.00000000000E+00 0. -1.
<mgrwt>
<rscale>  0 0.86050258E+02</rscale>
<asrwt>0</asrwt>
<pdfrwt beam="1">  1        2 0.46392078E+00 0.95382631E+02</pdfrwt>
<pdfrwt beam="2">  1        2 0.21783130E+00 0.77630977E+02</pdfrwt>
<totfact> 0.62505549E+00</totfact>
</mgrwt>
</event>
<event>
13    1  0.1595792E-008  0.1177762E+03  0.7546771E-02  0.1324230E+00
          2   -1    0    0  502    0  0.00000000000E+00  0.00000000000E+00  0.11320320600E+04  0.11320320600E+04  0.00000000000E+00 0. -1.
          2   -1    0    0  503    0 -0.00000000000E+00 -0.00000000000E+00 -0.21005097419E+04  0.21005097419E+04  0.00000000000E+00 0. -1.
         24    2    1    2    0    0 -0.99944796605E+00 -0.38564335915E+02 -0.24522815257E+03  0.26295344860E+03  0.86714833905E+02 0.  0.
         25    2    1    2    0    0 -0.83936993469E+02  0.21938287313E+02  0.10057753666E+03  0.18239383452E+03  0.12499985067E+03 0.  0.
         24    2    1    2    0    0 -0.52747647809E+02  0.53960394070E+02  0.32285489342E+02  0.11526964601E+03  0.80936394721E+02 0.  0.
        -11    1    3    3    0    0  0.35665715731E+02  0.36684218917E+01 -0.13024747081E+03  0.13509220648E+03  0.00000000000E+00 0.  1.
         12    1    3    3    0    0 -0.36665163697E+02 -0.42232757806E+02 -0.11498068175E+03  0.12786124212E+03  0.00000000000E+00 0. -1.
        -13    1    5    5    0    0 -0.43161539280E+02 -0.99253436500E+01  0.31425462235E+01  0.44399397703E+02  0.00000000000E+00 0.  1.
         14    1    5    5    0    0 -0.95861085288E+01  0.63885737720E+02  0.29142943119E+02  0.70870248302E+02  0.00000000000E+00 0. -1.
          5    1    4    4  501    0 -0.39146075412E+02  0.62613680623E+02  0.11907130158E+02  0.74945032991E+02  0.47000000000E+01 0.  1.
         -5    1    4    4    0  501 -0.44790918057E+02 -0.40675393311E+02  0.88670406504E+02  0.10744880153E+03  0.47000000000E+01 0.  1.
          1    1    1    2  502    0 -0.11723438459E+02 -0.55482127884E+02  0.90380564759E+03  0.90558288088E+03  0.00000000000E+00 0. -1.
          1    1    1    2  503    0  0.14940752770E+03  0.18147782416E+02 -0.17599182029E+04  0.17663419919E+04  0.00000000000E+00 0. -1.
<mgrwt>
<rscale>  0 0.81723659E+02</rscale>
<asrwt>0</asrwt>
<pdfrwt beam="1">  1        2 0.16647530E+00 0.56707191E+02</pdfrwt>
<pdfrwt beam="2">  1        2 0.30889849E+00 0.11777618E+03</pdfrwt>
<totfact> 0.32099505E+01</totfact>
</mgrwt>
</event>
<event>
13    1  0.1595792E-008  0.1221241E+03  0.7546771E-02  0.1250742E+00
         -3   -1    0    0    0  501 -0.00000000000E+00  0.00000000000E+00  0.13381712170E+04  0.13381712170E+04  0.00000000000E+00 0.  1.
          2   -1    0    0  503    0  0.00000000000E+00 -0.00000000000E+00 -0.65103574180E+03  0.65103574180E+03  0.00000000000E+00 0. -1.
         24    2    1    2    0    0 -0.95513132909E+02  0.74408049367E+01  0.17680970455E+03  0.21547380912E+03  0.77389706401E+02 0.  0.
         25    2    1    2    0    0  0.55423393465E+02 -0.16918939246E+03  0.10062889867E+03  0.23968334893E+03  0.12500051776E+03 0.  0.
         24    2    1    2    0    0  0.60151170518E+02 -0.95853648329E+02 -0.93078850864E+02  0.16750934768E+03  0.81176498253E+02 0.  0.
        -11    1    3    3    0    0  0.48689508969E+01  0.76329841206E+01 -0.30031091613E+01  0.95387522274E+01  0.00000000000E+00 0.  1.
         12    1    3    3    0    0 -0.10038208381E+03 -0.19217918396E+00  0.17981281371E+03  0.20593505689E+03  0.00000000000E+00 0. -1.
        -11    1    5    5    0    0 -0.11338280349E+02 -0.27955168220E+02  0.23980742810E+01  0.30262167665E+02  0.00000000000E+00 0.  1.
         12    1    5    5    0    0  0.71489450868E+02 -0.67898480109E+02 -0.95476925145E+02  0.13724718001E+03  0.00000000000E+00 0. -1.
          5    1    4    4  502    0 -0.29373498138E+02 -0.10970653745E+03  0.57516089548E+02  0.12739119793E+03  0.47000000000E+01 0.  1.
         -5    1    4    4    0  502  0.84796891603E+02 -0.59482855006E+02  0.43112809126E+02  0.11229215100E+03  0.47000000000E+01 0.  1.
          1    1    1    2  503    0  0.24981552908E+02  0.15812347548E+03 -0.41369416185E+03  0.44358761370E+03  0.00000000000E+00 0. -1.
         -4    1    1    2    0  501 -0.45042983983E+02  0.99478760372E+02  0.91646988469E+03  0.92295283938E+03  0.00000000000E+00 0.  1.
<mgrwt>
<rscale>  0 0.11548202E+03</rscale>
<asrwt>0</asrwt>
<pdfrwt beam="2">  1        2 0.95740551E-01 0.12212412E+03</pdfrwt>
<pdfrwt beam="1">  1       -3 0.19678988E+00 0.10920116E+03</pdfrwt>
<totfact> 0.52055891E+00</totfact>
</mgrwt>
</event>
<event>
13    1  0.1595792E-008  0.1934678E+03  0.7546771E-02  0.1335081E+00
          2   -1    0    0  503    0  0.00000000000E+00  0.00000000000E+00  0.22420585358E+04  0.22420585358E+04  0.00000000000E+00 0. -1.
         -1   -1    0    0    0  501 -0.00000000000E+00 -0.00000000000E+00 -0.94670649571E+03  0.94670649571E+03  0.00000000000E+00 0.  1.
         24    2    1    2    0    0 -0.35177336569E+03  0.97329387887E+02 -0.12747364058E+03  0.40001032455E+03  0.10267044438E+03 0.  0.
         25    2    1    2    0    0  0.22519492210E+03 -0.58099253299E+03  0.60894983046E+03  0.88017518363E+03  0.12499352596E+03 0.  0.
         24    2    1    2    0    0  0.36376461236E+02  0.28010822232E+03  0.56289632777E+03  0.63493367695E+03  0.80651318438E+02 0.  0.
        -11    1    5    5    0    0 -0.21807824390E+02  0.14301227247E+03  0.26716229187E+03  0.30381537400E+03  0.00000000000E+00 0.  1.
         12    1    5    5    0    0  0.58184285627E+02  0.13709594985E+03  0.29573403590E+03  0.33111830295E+03  0.00000000000E+00 0. -1.
        -13    1    3    3    0    0 -0.10279135130E+03 -0.14212991433E+02 -0.56280350228E+02  0.11804892566E+03  0.00000000000E+00 0.  1.
         14    1    3    3    0    0 -0.24898201438E+03  0.11154237932E+03 -0.71193290350E+02  0.28196139888E+03  0.00000000000E+00 0. -1.
          5    1    4    4  502    0  0.11018497838E+03 -0.38235996156E+03  0.45125079076E+03  0.60165541286E+03  0.47000000000E+01 0.  1.
         -5    1    4    4    0  502  0.11500994372E+03 -0.19863257142E+03  0.15769903971E+03  0.27851977077E+03  0.47000000000E+01 0.  1.
          1    1    1    2  503    0  0.30487992635E+01  0.31228490883E+02  0.74373732584E+03  0.74439890091E+03  0.00000000000E+00 0. -1.
         -2    1    1    2    0  501  0.87153183087E+02  0.17232643190E+03 -0.49275780342E+03  0.52924694546E+03  0.00000000000E+00 0.  1.
<mgrwt>
<rscale>  0 0.77912973E+02</rscale>
<asrwt>0</asrwt>
<pdfrwt beam="1">  1        2 0.32971449E+00 0.31376963E+02</pdfrwt>
<pdfrwt beam="2">  1       -1 0.13922154E+00 0.19346778E+03</pdfrwt>
<totfact> 0.43753868E+00</totfact>
</mgrwt>
</event>
<event>
13    1  0.1595792E-008  0.1758313E+03  0.7546771E-02  0.1243477E+00
          2   -1    0    0  503    0  0.00000000000E+00  0.00000000000E+00  0.16208138658E+04  0.16208138658E+04  0.00000000000E+00 0. -1.
         -3   -1    0    0    0  501 -0.00000000000E+00 -0.00000000000E+00 -0.19280308024E+04  0.19280308024E+04  0.00000000000E+00 0.  1.
         24    2    1    2    0    0  0.58638649697E+02  0.87316863135E+02 -0.43932707156E+03  0.45920370210E+03  0.82444153174E+02 0.  0.
         25    2    1    2    0    0 -0.95381490195E+02 -0.13775399707E+03  0.50670226270E+03  0.54813425228E+03  0.12502073078E+03 0.  0.
         24    2    1    2    0    0 -0.46518443446E+02  0.53265097933E+02  0.11830063625E+03  0.15971064325E+03  0.80692705945E+02 0.  0.
        -11    1    3    3    0    0 -0.69819373456E+01 -0.11696943624E+02 -0.67610010890E+02  0.68968685009E+02  0.00000000000E+00 0.  1.
         12    1    3    3    0    0  0.65620587043E+02  0.99013806760E+02 -0.37171706067E+03  0.39023501710E+03  0.00000000000E+00 0. -1.
        -11    1    5    5    0    0  0.41447687630E+01 -0.18047877297E+02  0.12097084642E+02  0.22118870673E+02  0.00000000000E+00 0.  1.
         12    1    5    5    0    0 -0.50663212209E+02  0.71312975230E+02  0.10620355161E+03  0.13759177258E+03  0.00000000000E+00 0. -1.
          5    1    4    4  502    0  0.21826194779E+02 -0.30742290975E+02  0.19110873104E+03  0.19484893716E+03  0.47000000000E+01 0. -1.
         -5    1    4    4    0  502 -0.11720768497E+03 -0.10701170609E+03  0.31559353165E+03  0.35328531512E+03  0.47000000000E+01 0. -1.
          1    1    1    2  503    0 -0.38532475983E+02 -0.71909849371E+02  0.93926913770E+03  0.94280554261E+03  0.00000000000E+00 0. -1.
         -4    1    1    2    0  501  0.12179375993E+03  0.69081885368E+02 -0.14321619017E+04  0.14389905280E+04  0.00000000000E+00 0.  1.
<mgrwt>
<rscale>  0 0.11976993E+03</rscale>
<asrwt>0</asrwt>
<pdfrwt beam="1">  1        2 0.23835498E+00 0.81582953E+02</pdfrwt>
<pdfrwt beam="2">  1       -3 0.28353394E+00 0.17583130E+03</pdfrwt>
<totfact> 0.48177734E-01</totfact>
</mgrwt>
</event>
<event>
13    1  0.1595792E-008  0.5270400E+02  0.7546771E-02  0.1505263E+00
          2   -1    0    0  503    0  0.00000000000E+00  0.00000000000E+00  0.28206362888E+04  0.28206362888E+04  0.00000000000E+00 0. -1.
         -3   -1    0    0    0  501 -0.00000000000E+00 -0.00000000000E+00 -0.65202850535E+03  0.65202850535E+03  0.00000000000E+00 0.  1.
         24    2    1    2    0    0  0.55805794786E+03 -0.15052999759E+03  0.20593922530E+02  0.58366204234E+03  0.78417578923E+02 0.  0.
         25    2    1    2    0    0 -0.23737115403E+03  0.35749080065E+03  0.36502414303E+03  0.57707217156E+03  0.12499971552E+03 0.  0.
         24    2    1    2    0    0 -0.28895013266E+03 -0.15551871978E+03  0.89610469320E+03  0.95861135812E+03  0.90850775282E+02 0.  0.
        -11    1    5    5    0    0 -0.16060256042E+03 -0.50019763551E+02  0.54129879965E+03  0.56683291159E+03  0.00000000000E+00 0.  1.
         12    1    5    5    0    0 -0.12834757224E+03 -0.10549895623E+03  0.35480589355E+03  0.39177844652E+03  0.00000000000E+00 0. -1.
        -13    1    3    3    0    0  0.48575594634E+03 -0.15380726417E+03  0.31362416766E+02  0.51048909400E+03  0.00000000000E+00 0.  1.
         14    1    3    3    0    0  0.72302001524E+02  0.32772665804E+01 -0.10768494236E+02  0.73172948339E+02  0.00000000000E+00 0. -1.
          5    1    4    4  502    0 -0.64262439540E+02  0.20587340659E+03  0.19655648419E+03  0.29183910319E+03  0.47000000000E+01 0.  1.
         -5    1    4    4    0  502 -0.17310871449E+03  0.15161739406E+03  0.16846765884E+03  0.28523306836E+03  0.47000000000E+01 0.  1.
          1    1    1    2  503    0 -0.46744556019E+02 -0.24347067766E+02  0.11184503968E+04  0.11196915304E+04  0.00000000000E+00 0. -1.
         -4    1    1    2    0  501  0.15007894848E+02 -0.27095015518E+02 -0.23156537210E+03  0.23362769170E+03  0.00000000000E+00 0.  1.
<mgrwt>
<rscale>  0 0.40403509E+02</rscale>
<asrwt>0</asrwt>
<pdfrwt beam="1">  1        2 0.41479945E+00 0.52703999E+02</pdfrwt>
<pdfrwt beam="2">  1       -3 0.95886546E-01 0.30973808E+02</pdfrwt>
<totfact> 0.23189482E+00</totfact>
</mgrwt>
</event>
<event>
13    1  0.1595792E-008  0.1537122E+03  0.7546771E-02  0.1251000E+00
          2   -1    0    0  503    0  0.00000000000E+00  0.00000000000E+00  0.27454246065E+04  0.27454246065E+04  0.00000000000E+00 0. -1.
          2   -1    0    0  502    0 -0.00000000000E+00 -0.00000000000E+00 -0.36421266353E+04  0.36421266353E+04  0.00000000000E+00 0. -1.
         24    2    1    2    0    0  0.82572360230E+02  0.12433390910E+03 -0.25678971226E+03  0.30762257776E+03  0.80084820024E+02 0.  0.
         25    2    1    2    0    0 -0.16800551273E+03  0.25620489558E+02 -0.17781904603E+03  0.27591086880E+03  0.12499973040E+03 0.  0.
         24    2    1    2    0    0 -0.11722480535E+03 -0.40587353830E+02  0.34293167159E+03  0.37351808459E+03  0.80775242851E+02 0.  0.
        -11    1    5    5    0    0  0.21544287135E+01 -0.25641431603E+02  0.86862652203E+02  0.90593845958E+02  0.00000000000E+00 0.  1.
         12    1    5    5    0    0 -0.11937923407E+03 -0.14945922227E+02  0.25606901939E+03  0.28292423864E+03  0.00000000000E+00 0. -1.
        -13    1    3    3    0    0  0.42909900184E+02  0.12236637598E+03 -0.19639063774E+03  0.23533820790E+03  0.00000000000E+00 0.  1.
         14    1    3    3    0    0  0.39662460046E+02  0.19675331214E+01 -0.60399074520E+02  0.72284369862E+02  0.00000000000E+00 0. -1.
          5    1    4    4  501    0 -0.17389636976E+03  0.52160671318E+02 -0.14110311860E+03  0.22998448454E+03  0.47000000000E+01 0.  1.
         -5    1    4    4    0  501  0.58908570342E+01 -0.26540181760E+02 -0.36715927433E+02  0.45926384265E+02  0.47000000000E+01 0.  1.
          1    1    1    2  502    0  0.38594605214E+02 -0.14844545327E+03 -0.31127968323E+04  0.31165733932E+04  0.00000000000E+00 0. -1.
          1    1    1    2  503    0  0.16406335264E+03  0.39078408435E+02  0.23077718902E+04  0.23139263175E+04  0.00000000000E+00 0. -1.
<mgrwt>
<rscale>  0 0.11533359E+03</rscale>
<asrwt>0</asrwt>
<pdfrwt beam="1">  1        2 0.40373892E+00 0.86537293E+02</pdfrwt>
<pdfrwt beam="2">  1        2 0.53560685E+00 0.15371218E+03</pdfrwt>
<totfact> 0.72218863E-01</totfact>
</mgrwt>
</event>
<event>
13    1  0.1595792E-008  0.4433386E+02  0.7546771E-02  0.1506230E+00
          2   -1    0    0  503    0  0.00000000000E+00  0.00000000000E+00  0.15720588329E+04  0.15720588329E+04  0.00000000000E+00 0. -1.
          2   -1    0    0  502    0 -0.00000000000E+00 -0.00000000000E+00 -0.74925128638E+03  0.74925128638E+03  0.00000000000E+00 0. -1.
         24    2    1    2    0    0 -0.71563146291E+03  0.11695304649E+03  0.31538832107E+02  0.72807898247E+03  0.57427354069E+02 0.  0.
         25    2    1    2    0    0  0.48101616771E+03  0.30222702790E+03  0.14309680166E+03  0.59901667179E+03  0.12500619361E+03 0.  0.
         24    2    1    2    0    0  0.17940111280E+03 -0.36354383783E+03  0.35124626513E+03  0.54274217316E+03  0.82742047678E+02 0.  0.
        -13    1    3    3    0    0 -0.30675449854E+03  0.28708206833E+02 -0.55670062241E+01  0.30814521751E+03  0.00000000000E+00 0.  1.
         14    1    3    3    0    0 -0.40887696437E+03  0.88244839661E+02  0.37105838332E+02  0.41993376497E+03  0.00000000000E+00 0. -1.
        -13    1    5    5    0    0  0.10046337828E+03 -0.15101416046E+03  0.11216757129E+03  0.21325977371E+03  0.00000000000E+00 0.  1.
         14    1    5    5    0    0  0.78937734523E+02 -0.21252967737E+03  0.23907869384E+03  0.32948239944E+03  0.00000000000E+00 0. -1.
          5    1    4    4  501    0  0.23464278847E+02 -0.11756659937E+02  0.46520145346E+01  0.27065156085E+02  0.47000000000E+01 0.  1.
         -5    1    4    4    0  501  0.45755188886E+03  0.31398368784E+03  0.13844478712E+03  0.57195151570E+03  0.47000000000E+01 0.  1.
          1    1    1    2  502    0  0.17813642989E+02 -0.31949004119E+02 -0.71543816466E+02  0.80352861898E+02  0.00000000000E+00 0. -1.
          1    1    1    2  503    0  0.37400539411E+02 -0.23687232449E+02  0.36846946412E+03  0.37111942999E+03  0.00000000000E+00 0. -1.
<mgrwt>
<rscale>  0 0.40270503E+02</rscale>
<asrwt>0</asrwt>
<pdfrwt beam="1">  1        2 0.23118512E+00 0.44333861E+02</pdfrwt>
<pdfrwt beam="2">  1        2 0.11018401E+00 0.36579567E+02</pdfrwt>
<totfact> 0.10692809E+02</totfact>
</mgrwt>
</event>
<event>
13    1  0.1595792E-008  0.1060574E+03  0.7546771E-02  0.1304976E+00
          2   -1    0    0  502    0  0.00000000000E+00  0.00000000000E+00  0.23231113884E+04  0.23231113884E+04  0.00000000000E+00 0. -1.
          2   -1    0    0  503    0 -0.00000000000E+00 -0.00000000000E+00 -0.73109974582E+03  0.73109974582E+03  0.00000000000E+00 0. -1.
         24    2    1    2    0    0 -0.23416031523E+03  0.23567863774E+01 -0.44671429427E+03  0.51101437999E+03  0.82130555676E+02 0.  0.
         25    2    1    2    0    0  0.28084463275E+03  0.15759813550E+03  0.12355455549E+03  0.36688049432E+03  0.12499875549E+03 0.  0.
         24    2    1    2    0    0 -0.89726602338E+02 -0.86736959464E+01  0.26834480147E+03  0.29221523899E+03  0.72489428563E+02 0.  0.
        -11    1    3    3    0    0 -0.23584722996E+03 -0.96135778779E+01 -0.42333000791E+03  0.48469024372E+03  0.00000000000E+00 0.  1.
         12    1    3    3    0    0  0.16869147250E+01  0.11970364255E+02 -0.23384286363E+02  0.26324136271E+02  0.00000000000E+00 0. -1.
        -11    1    5    5    0    0 -0.94739505226E+01  0.25978322122E+02  0.78041860077E+02  0.82795898951E+02  0.00000000000E+00 0.  1.
         12    1    5    5    0    0 -0.80252651816E+02 -0.34652018068E+02  0.19030294139E+03  0.20941934004E+03  0.00000000000E+00 0. -1.
          5    1    4    4  501    0  0.14764428681E+03  0.13571911969E+02  0.66149401671E+02  0.16242187526E+03  0.47000000000E+01 0. -1.
         -5    1    4    4    0  501  0.13320034594E+03  0.14402622353E+03  0.57405153823E+02  0.20445861906E+03  0.47000000000E+01 0. -1.
          1    1    1    2  502    0  0.82790573446E+02 -0.87796224476E+02  0.17513546045E+04  0.17555071651E+04  0.00000000000E+00 0. -1.
          1    1    1    2  503    0 -0.39748288623E+02 -0.63485001453E+02 -0.10452802453E+03  0.12859385588E+03  0.00000000000E+00 0. -1.
<mgrwt>
<rscale>  0 0.89128459E+02</rscale>
<asrwt>0</asrwt>
<pdfrwt beam="1">  1        2 0.34163403E+00 0.10605737E+03</pdfrwt>
<pdfrwt beam="2">  1        2 0.10751467E+00 0.74901748E+02</pdfrwt>
<totfact> 0.43171059E+01</totfact>
</mgrwt>
</event>
<event>
13    1  0.1595792E-008  0.3246678E+03  0.7546771E-02  0.1158906E+00
          2   -1    0    0  502    0  0.00000000000E+00  0.00000000000E+00  0.31038896767E+03  0.31038896767E+03  0.00000000000E+00 0. -1.
          2   -1    0    0  503    0 -0.00000000000E+00 -0.00000000000E+00 -0.32025822909E+04  0.32025822909E+04  0.00000000000E+00 0. -1.
         24    2    1    2    0    0 -0.25939961249E+03 -0.14102630258E+02 -0.50480656917E+03  0.57348380474E+03  0.81036774869E+02 0.  0.
         25    2    1    2    0    0 -0.26197356545E+02  0.29576964149E+03 -0.29737228422E+03  0.43843147104E+03  0.12500358818E+03 0.  0.
         24    2    1    2    0    0  0.21441778599E+02 -0.52379613051E+02 -0.91997355536E+02  0.13485076021E+03  0.80733142959E+02 0.  0.
        -11    1    3    3    0    0 -0.18368431512E+02 -0.24798302687E+02 -0.57166970194E+02  0.64964741003E+02  0.00000000000E+00 0.  1.
         12    1    3    3    0    0 -0.24103118098E+03  0.10695672429E+02 -0.44763959897E+03  0.50851906373E+03  0.00000000000E+00 0. -1.
        -13    1    5    5    0    0  0.27649826850E+02  0.54242070373E+00  0.99605265929E+00  0.27673078361E+02  0.00000000000E+00 0.  1.
         14    1    5    5    0    0 -0.62080482518E+01 -0.52922033755E+02 -0.92993408195E+02  0.10717768185E+03  0.00000000000E+00 0. -1.
          5    1    4    4  501    0 -0.40637266915E+02  0.29467992959E+03 -0.30053243834E+03  0.42288235345E+03  0.47000000000E+01 0. -1.
         -5    1    4    4    0  501  0.14439910370E+02  0.10897118963E+01  0.31601541236E+01  0.15549117582E+02  0.47000000000E+01 0. -1.
          1    1    1    2  502    0 -0.67340573320E+02 -0.80729727587E+02  0.15249900590E+03  0.18522415752E+03  0.00000000000E+00 0. -1.
          1    1    1    2  503    0  0.33149576376E+03 -0.14855767059E+03 -0.21505161202E+04  0.21809810651E+04  0.00000000000E+00 0. -1.
<mgrwt>
<rscale>  0 0.18950765E+03</rscale>
<asrwt>0</asrwt>
<pdfrwt beam="1">  1        2 0.45645432E-01 0.11061506E+03</pdfrwt>
<pdfrwt beam="2">  1        2 0.47096803E+00 0.32466784E+03</pdfrwt>
<totfact> 0.32036949E+01</totfact>
</mgrwt>
</event>
<event>
13    1  0.1595792E-008  0.9421318E+02  0.7546771E-02  0.1360197E+00
          2   -1    0    0  503    0  0.00000000000E+00  0.00000000000E+00  0.57113626305E+03  0.57113626305E+03  0.00000000000E+00 0. -1.
          2   -1    0    0  502    0 -0.00000000000E+00 -0.00000000000E+00 -0.80398195064E+03  0.80398195064E+03  0.00000000000E+00 0. -1.
         24    2    1    2    0    0  0.11971867379E+01 -0.39838235617E+02 -0.98531933818E+02  0.13131090104E+03  0.77107019628E+02 0.  0.
         25    2    1    2    0    0  0.30597416992E+02  0.37326835426E+02 -0.13770455998E+02  0.13470671481E+03  0.12500711575E+03 0.  0.
         24    2    1    2    0    0 -0.58881826205E+02  0.69390580189E+02  0.17107742139E+03  0.20977084865E+03  0.80338052993E+02 0.  0.
        -11    1    5    5    0    0 -0.12898438716E+02  0.71203799225E+02  0.12630510289E+03  0.14556555143E+03  0.00000000000E+00 0.  1.
         12    1    5    5    0    0 -0.45983387489E+02 -0.18132190368E+01  0.44772318498E+02  0.64205297226E+02  0.00000000000E+00 0. -1.
        -11    1    3    3    0    0  0.22992451482E+02  0.13194828647E+02 -0.48234122357E+02  0.55038957910E+02  0.00000000000E+00 0.  1.
         12    1    3    3    0    0 -0.21795264745E+02 -0.53033064264E+02 -0.50297811461E+02  0.76271943127E+02  0.00000000000E+00 0. -1.
          5    1    4    4  501    0  0.47126644268E+02  0.52088719999E+02 -0.53872502725E+02  0.88648135349E+02  0.47000000000E+01 0.  1.
         -5    1    4    4    0  501 -0.16529227276E+02 -0.14761884573E+02  0.40102046728E+02  0.46058579464E+02  0.47000000000E+01 0.  1.
          1    1    1    2  502    0  0.45524441423E+02  0.25056057586E+02 -0.58706640736E+03  0.58936172886E+03  0.00000000000E+00 0. -1.
          1    1    1    2  503    0 -0.18437218948E+02 -0.91935237583E+02  0.29544568820E+03  0.30996802033E+03  0.00000000000E+00 0. -1.
<mgrwt>
<rscale>  0 0.69969386E+02</rscale>
<asrwt>0</asrwt>
<pdfrwt beam="1">  1        2 0.83990627E-01 0.94213180E+02</pdfrwt>
<pdfrwt beam="2">  1        2 0.11823264E+00 0.51964226E+02</pdfrwt>
<totfact> 0.35366105E+02</totfact>
</mgrwt>
</event>
<event>
13    1  0.1595792E-008  0.9647395E+02  0.7546771E-02  0.1311951E+00
          2   -1    0    0  503    0  0.00000000000E+00  0.00000000000E+00  0.31572971399E+04  0.31572971399E+04  0.00000000000E+00 0. -1.
          2   -1    0    0  502    0 -0.00000000000E+00 -0.00000000000E+00 -0.10999428548E+04  0.10999428548E+04  0.00000000000E+00 0. -1.
         24    2    1    2    0    0 -0.12274295628E+03 -0.95029008932E+02 -0.38790515856E+03  0.42513141872E+03  0.78549126600E+02 0.  0.
         25    2    1    2    0    0  0.14849726671E+03 -0.58290291167E+02  0.14208012104E+03  0.24751101913E+03  0.12500299010E+03 0.  0.
         24    2    1    2    0    0  0.26015200291E+02  0.15332085094E+03  0.30416698616E+03  0.35020007942E+03  0.77061444210E+02 0.  0.
        -13    1    3    3    0    0 -0.10358390541E+02 -0.62847729743E+01 -0.12645497342E+03  0.12703406996E+03  0.00000000000E+00 0.  1.
         14    1    3    3    0    0 -0.11238456574E+03 -0.88744235958E+02 -0.26145018514E+03  0.29809734876E+03  0.00000000000E+00 0. -1.
        -13    1    5    5    0    0  0.51507694942E+02  0.75682529447E+02  0.15049763191E+03  0.17615454894E+03  0.00000000000E+00 0.  1.
         14    1    5    5    0    0 -0.25492494652E+02  0.77638321489E+02  0.15366935424E+03  0.17404553048E+03  0.00000000000E+00 0. -1.
          5    1    4    4  501    0  0.13011518461E+03 -0.63595647806E+02  0.16345931594E+03  0.21843856265E+03  0.47000000000E+01 0.  1.
         -5    1    4    4    0  501  0.18382082103E+02  0.53053566392E+01 -0.21379194898E+02  0.29072456484E+02  0.47000000000E+01 0.  1.
          1    1    1    2  502    0 -0.58945794236E+02 -0.76948256621E+02 -0.61331490785E+03  0.62092738468E+03  0.00000000000E+00 0. -1.
          1    1    1    2  503    0  0.71762835134E+01  0.76946705784E+02  0.26123272443E+04  0.26134700928E+04  0.00000000000E+00 0. -1.
<mgrwt>
<rscale>  0 0.86345627E+02</rscale>
<asrwt>0</asrwt>
<pdfrwt beam="1">  1        2 0.46430840E+00 0.77280622E+02</pdfrwt>
<pdfrwt beam="2">  1        2 0.16175630E+00 0.96473954E+02</pdfrwt>
<totfact> 0.99943678E+00</totfact>
</mgrwt>
</event>
<event>
13    1  0.1595792E-008  0.1017217E+03  0.7546771E-02  0.1467432E+00
         -1   -1    0    0    0  501 -0.00000000000E+00  0.00000000000E+00  0.14156104299E+04  0.14156104299E+04  0.00000000000E+00 0.  1.
          2   -1    0    0  503    0  0.00000000000E+00 -0.00000000000E+00 -0.42094938286E+04  0.42094938286E+04  0.00000000000E+00 0. -1.
         24    2    1    2    0    0 -0.40068388085E+02  0.19862729554E+02  0.32939783064E+03  0.34191776249E+03  0.80030130119E+02 0.  0.
         25    2    1    2    0    0 -0.20988556795E+02 -0.28142330466E+02 -0.11669625434E+02  0.13035938961E+03  0.12499952008E+03 0.  0.
         24    2    1    2    0    0  0.14363895632E+03 -0.18143500184E+02 -0.38369622025E+03  0.41797091293E+03  0.80719007936E+02 0.  0.
        -13    1    5    5    0    0 -0.84169164474E+01  0.69917327106E+01 -0.17169339948E+02  0.20359642508E+02  0.00000000000E+00 0.  1.
         14    1    5    5    0    0  0.15205587277E+03 -0.25135232895E+02 -0.36652688031E+03  0.39761127042E+03  0.00000000000E+00 0. -1.
        -13    1    3    3    0    0 -0.63911982392E+02  0.12813259858E+02  0.20701965937E+03  0.21703930632E+03  0.00000000000E+00 0.  1.
         14    1    3    3    0    0  0.23843594307E+02  0.70494696966E+01  0.12237817127E+03  0.12487845617E+03  0.00000000000E+00 0. -1.
          5    1    4    4  502    0  0.24277049871E+02 -0.47324588938E+02 -0.45783344991E+02  0.70336310303E+02  0.47000000000E+01 0.  1.
         -5    1    4    4    0  502 -0.45265606666E+02  0.19182258472E+02  0.34113719557E+02  0.60023079302E+02  0.47000000000E+01 0.  1.
          1    1    1    2  503    0 -0.10031687576E+03  0.15334682758E+02 -0.37305867019E+04  0.37319667426E+04  0.00000000000E+00 0. -1.
         -2    1    1    2    0  501  0.17734864314E+02  0.11088418337E+02  0.10026713182E+04  0.10028894509E+04  0.00000000000E+00 0.  1.
<mgrwt>
<rscale>  0 0.46126010E+02</rscale>
<asrwt>0</asrwt>
<pdfrwt beam="2">  1        2 0.61904321E+00 0.10172166E+03</pdfrwt>
<pdfrwt beam="1">  1       -1 0.20817800E+00 0.20915985E+02</pdfrwt>
<totfact> 0.11355474E-01</totfact>
</mgrwt>
</event>
<event>
13    1  0.1595792E-008  0.9793305E+02  0.7546771E-02  0.1374704E+00
          2   -1    0    0  503    0  0.00000000000E+00  0.00000000000E+00  0.17839434188E+04  0.17839434188E+04  0.00000000000E+00 0. -1.
         -3   -1    0    0    0  501 -0.00000000000E+00 -0.00000000000E+00 -0.34245440858E+03  0.34245440858E+03  0.00000000000E+00 0.  1.
         24    2    1    2    0    0  0.60152758408E+02 -0.91706377715E+02  0.32011158837E+03  0.34771838274E+03  0.80051424935E+02 0.  0.
         25    2    1    2    0    0 -0.98474076043E+01  0.10206017548E+03  0.45449655906E+03  0.48239599282E+03  0.12500208331E+03 0.  0.
         24    2    1    2    0    0 -0.21760445272E+02  0.36636440871E+02  0.52456606921E+03  0.53253329958E+03  0.81279815578E+02 0.  0.
        -11    1    5    5    0    0 -0.34520894300E+02 -0.32408157267E+01  0.98681305733E+02  0.10459538771E+03  0.00000000000E+00 0.  1.
         12    1    5    5    0    0  0.12760449028E+02  0.39877256597E+02  0.42588476348E+03  0.42793791187E+03  0.00000000000E+00 0. -1.
        -13    1    3    3    0    0  0.15212086316E+02  0.11080405976E+02  0.20676804215E+02  0.27959134450E+02  0.00000000000E+00 0.  1.
         14    1    3    3    0    0  0.44940672092E+02 -0.10278678369E+03  0.29943478415E+03  0.31975924829E+03  0.00000000000E+00 0. -1.
          5    1    4    4  502    0  0.25638712127E+02  0.37936476266E+02  0.35894094247E+03  0.36188010442E+03  0.47000000000E+01 0.  1.
         -5    1    4    4    0  502 -0.35486119731E+02  0.64123699216E+02  0.95555616587E+02  0.12051588840E+03  0.47000000000E+01 0.  1.
          1    1    1    2  503    0  0.31763604546E+02  0.30899059344E+02  0.44409434655E+03  0.44629975026E+03  0.00000000000E+00 0. -1.
         -4    1    1    2    0  501 -0.60308510079E+02 -0.77889297982E+02 -0.30177955297E+03  0.31745040198E+03  0.00000000000E+00 0.  1.
<mgrwt>
<rscale>  0 0.65876759E+02</rscale>
<asrwt>0</asrwt>
<pdfrwt beam="1">  1        2 0.26234462E+00 0.44313412E+02</pdfrwt>
<pdfrwt beam="2">  1       -3 0.50360943E-01 0.97933047E+02</pdfrwt>
<totfact> 0.29694645E+01</totfact>
</mgrwt>
</event>
<event>
13    1  0.1595792E-008  0.1274721E+03  0.7546771E-02  0.1309963E+00
          2   -1    0    0  502    0  0.00000000000E+00  0.00000000000E+00  0.10202477171E+04  0.10202477171E+04  0.00000000000E+00 0. -1.
          2   -1    0    0  503    0 -0.00000000000E+00 -0.00000000000E+00 -0.51928647433E+03  0.51928647433E+03  0.00000000000E+00 0. -1.
         24    2    1    2    0    0 -0.17722478682E+02  0.32463593014E+02 -0.27128400078E+02  0.93085366371E+02  0.80999779132E+02 0.  0.
         25    2    1    2    0    0  0.20936800873E+03 -0.95586842715E+02  0.30081921948E+03  0.39886120177E+03  0.12500499145E+03 0.  0.
         24    2    1    2    0    0 -0.23979732184E+02 -0.43315922417E+02  0.10534032911E+03  0.14152649625E+03  0.80510046035E+02 0.  0.
        -11    1    5    5    0    0 -0.17489525517E+02 -0.64563484897E+02  0.55348789893E+02  0.86820594489E+02  0.00000000000E+00 0.  1.
         12    1    5    5    0    0 -0.64902066677E+01  0.21247562479E+02  0.49991539217E+02  0.54705901758E+02  0.00000000000E+00 0. -1.
        -13    1    3    3    0    0 -0.27375313209E+02 -0.15264498391E+02 -0.31194904870E+02  0.44221428903E+02  0.00000000000E+00 0.  1.
         14    1    3    3    0    0  0.96528345268E+01  0.47728091405E+02  0.40665047915E+01  0.48863937467E+02  0.00000000000E+00 0. -1.
          5    1    4    4  501    0 -0.15532487736E+02 -0.16084501872E+02  0.19912148980E+02  0.30307640171E+02  0.47000000000E+01 0. -1.
         -5    1    4    4    0  501  0.22490049647E+03 -0.79502340843E+02  0.28090707050E+03  0.36855356160E+03  0.47000000000E+01 0. -1.
          1    1    1    2  502    0 -0.58758811709E+02  0.96785727347E+01  0.49862942841E+03  0.50217285829E+03  0.00000000000E+00 0. -1.
          1    1    1    2  503    0 -0.10890698615E+03  0.96760599383E+02 -0.37669933419E+03  0.40388826872E+03  0.00000000000E+00 0. -1.
<mgrwt>
<rscale>  0 0.87126559E+02</rscale>
<asrwt>0</asrwt>
<pdfrwt beam="1">  1        2 0.15003643E+00 0.59550590E+02</pdfrwt>
<pdfrwt beam="2">  1        2 0.76365658E-01 0.12747208E+03</pdfrwt>
<totfact> 0.28952856E+02</totfact>
</mgrwt>
</event>
<event>
13    1  0.1595792E-008  0.5925640E+02  0.7546771E-02  0.1509099E+00
          2   -1    0    0  502    0  0.00000000000E+00  0.00000000000E+00  0.14248391650E+04  0.14248391650E+04  0.00000000000E+00 0. -1.
          2   -1    0    0  503    0 -0.00000000000E+00 -0.00000000000E+00 -0.20239275288E+04  0.20239275288E+04  0.00000000000E+00 0. -1.
         24    2    1    2    0    0 -0.32251178008E+03 -0.44986391753E+02 -0.39779192788E+03  0.52372854991E+03  0.10007773163E+03 0.  0.
         25    2    1    2    0    0  0.17855659405E+03 -0.40893626748E+03 -0.21527547093E+03  0.51095903409E+03  0.12499711194E+03 0.  0.
         24    2    1    2    0    0  0.16475754850E+03  0.53273275372E+03 -0.30972475082E+03  0.64367869990E+03  0.86276362663E+02 0.  0.
        -11    1    3    3    0    0 -0.97635998772E+02 -0.58476957097E+02 -0.15789972442E+03  0.19463983595E+03  0.00000000000E+00 0.  1.
         12    1    3    3    0    0 -0.22487578131E+03  0.13490565344E+02 -0.23989220346E+03  0.32908871396E+03  0.00000000000E+00 0. -1.
        -13    1    5    5    0    0  0.11387898468E+03  0.33115592753E+03 -0.23943546462E+03  0.42421929848E+03  0.00000000000E+00 0.  1.
         14    1    5    5    0    0  0.50878563828E+02  0.20157682619E+03 -0.70289286205E+02  0.21945940141E+03  0.00000000000E+00 0. -1.
          5    1    4    4  501    0  0.44078741925E+02 -0.21077456899E+03 -0.53545153634E+02  0.22194149657E+03  0.47000000000E+01 0. -1.
         -5    1    4    4    0  501  0.13447785213E+03 -0.19816169850E+03 -0.16173031730E+03  0.28901753752E+03  0.47000000000E+01 0. -1.
          1    1    1    2  502    0 -0.27048703128E+02 -0.52708005040E+02  0.10459646393E+04  0.10476410611E+04  0.00000000000E+00 0. -1.
          1    1    1    2  503    0  0.62463406505E+01 -0.26102089445E+02 -0.72226085344E+03  0.72275934879E+03  0.00000000000E+00 0. -1.
<mgrwt>
<rscale>  0 0.39879655E+02</rscale>
<asrwt>0</asrwt>
<pdfrwt beam="1">  1        2 0.20953517E+00 0.59256401E+02</pdfrwt>
<pdfrwt beam="2">  1        2 0.29763640E+00 0.26839073E+02</pdfrwt>
<totfact> 0.29310931E+01</totfact>
</mgrwt>
</event>
<event>
13    1  0.1595792E-008  0.1517388E+03  0.7546771E-02  0.1253844E+00
          2   -1    0    0  503    0  0.00000000000E+00  0.00000000000E+00  0.17622587981E+04  0.17622587981E+04  0.00000000000E+00 0. -1.
          2   -1    0    0  502    0 -0.00000000000E+00 -0.00000000000E+00 -0.11898195143E+04  0.11898195143E+04  0.00000000000E+00 0. -1.
         24    2    1    2    0    0 -0.29280037633E+02 -0.78107022565E+02 -0.15668992819E+03  0.19494604344E+03  0.80586591182E+02 0.  0.
         25    2    1    2    0    0 -0.89123295864E+02  0.16351021247E+03  0.62531872865E+03  0.66432560660E+03  0.12500579082E+03 0.  0.
         24    2    1    2    0    0  0.11899702433E+03  0.66720893852E+02  0.53286120122E+03  0.55581242337E+03  0.79839969556E+02 0.  0.
        -13    1    5    5    0    0 -0.20305142766E+01  0.11169085093E+02  0.15045355581E+03  0.15088122450E+03  0.00000000000E+00 0.  1.
         14    1    5    5    0    0  0.12102753861E+03  0.55551808759E+02  0.38240764540E+03  0.40493119887E+03  0.00000000000E+00 0. -1.
        -13    1    3    3    0    0 -0.42511013504E+02 -0.68212127479E+01 -0.66595853545E+02  0.79301468599E+02  0.00000000000E+00 0.  1.
         14    1    3    3    0    0  0.13230975871E+02 -0.71285809817E+02 -0.90094074643E+02  0.11564457484E+03  0.00000000000E+00 0. -1.
          5    1    4    4  501    0 -0.74857625953E+02  0.18269218373E+03  0.58241341668E+03  0.61498583405E+03  0.47000000000E+01 0.  1.
         -5    1    4    4    0  501 -0.14265669911E+02 -0.19181971264E+02  0.42905311976E+02  0.49339772550E+02  0.47000000000E+01 0.  1.
          1    1    1    2  502    0  0.76897894273E+02 -0.11666996739E+03 -0.97473316387E+03  0.98469787660E+03  0.00000000000E+00 0. -1.
          1    1    1    2  503    0 -0.77491585106E+02 -0.35454116372E+02  0.54568244598E+03  0.55229636246E+03  0.00000000000E+00 0. -1.
<mgrwt>
<rscale>  0 0.11371337E+03</rscale>
<asrwt>0</asrwt>
<pdfrwt beam="1">  1        2 0.25915571E+00 0.85217018E+02</pdfrwt>
<pdfrwt beam="2">  1        2 0.17497346E+00 0.15173883E+03</pdfrwt>
<totfact> 0.42443333E+01</totfact>
</mgrwt>
</event>
<event>
13    1  0.1595792E-008  0.1194816E+03  0.7546771E-02  0.1255104E+00
          2   -1    0    0  502    0  0.00000000000E+00  0.00000000000E+00  0.20493856074E+04  0.20493856074E+04  0.00000000000E+00 0. -1.
          2   -1    0    0  503    0 -0.00000000000E+00 -0.00000000000E+00 -0.17399737391E+04  0.17399737391E+04  0.00000000000E+00 0. -1.
         24    2    1    2    0    0  0.15392225864E+02  0.25181671166E+02  0.81374780426E+02  0.11826050758E+03  0.80577016471E+02 0.  0.
         25    2    1    2    0    0  0.14954175389E+03  0.17996597370E+03 -0.16950517274E+03  0.31481185888E+03  0.12499606017E+03 0.  0.
         24    2    1    2    0    0 -0.61534018579E+02 -0.18218052055E+03  0.30718668687E+03  0.37114656297E+03  0.80062057839E+02 0.  0.
        -11    1    5    5    0    0 -0.69469622152E+02 -0.18666806076E+03  0.29350807724E+03  0.35470830933E+03  0.00000000000E+00 0.  1.
         12    1    5    5    0    0  0.79356035735E+01  0.44875402037E+01  0.13678609630E+02  0.16438253635E+02  0.00000000000E+00 0. -1.
        -11    1    3    3    0    0 -0.35485878056E+00 -0.89520564171E+01  0.80150428800E+02  0.80649590673E+02  0.00000000000E+00 0.  1.
         12    1    3    3    0    0  0.15747084644E+02  0.34133727583E+02  0.12243516260E+01  0.37610916905E+02  0.00000000000E+00 0. -1.
          5    1    4    4  501    0  0.19514820315E+02  0.29748325058E+02  0.19251897309E+02  0.40724889266E+02  0.47000000000E+01 0. -1.
         -5    1    4    4    0  501  0.13002693358E+03  0.15021764864E+03 -0.18875707005E+03  0.27408696961E+03  0.47000000000E+01 0. -1.
          1    1    1    2  502    0 -0.15490336664E+03 -0.11658529325E+03  0.15296490044E+04  0.15418862670E+04  0.00000000000E+00 0. -1.
          1    1    1    2  503    0  0.51503405457E+02  0.93618168940E+02 -0.14392934307E+04  0.14432541502E+04  0.00000000000E+00 0. -1.
<mgrwt>
<rscale>  0 0.11300533E+03</rscale>
<asrwt>0</asrwt>
<pdfrwt beam="1">  1        2 0.30138024E+00 0.11948156E+03</pdfrwt>
<pdfrwt beam="2">  1        2 0.25587849E+00 0.10688013E+03</pdfrwt>
<totfact> 0.16113760E+01</totfact>
</mgrwt>
</event>
<event>
13    1  0.1595792E-008  0.9038455E+02  0.7546771E-02  0.1327079E+00
          2   -1    0    0  503    0  0.00000000000E+00  0.00000000000E+00  0.98437956776E+03  0.98437956776E+03  0.00000000000E+00 0. -1.
          2   -1    0    0  502    0 -0.00000000000E+00 -0.00000000000E+00 -0.17136440136E+04  0.17136440136E+04  0.00000000000E+00 0. -1.
         24    2    1    2    0    0 -0.40622548191E+02 -0.65547241503E+02 -0.24645754316E+03  0.27110565325E+03  0.82524677258E+02 0.  0.
         25    2    1    2    0    0 -0.29385313788E+02  0.21500915944E+03 -0.40074947445E+01  0.25046695989E+03  0.12500081068E+03 0.  0.
         24    2    1    2    0    0  0.16576355002E+03 -0.28611062563E+02  0.17206304812E+03  0.25420099122E+03  0.81953059694E+02 0.  0.
        -11    1    5    5    0    0  0.15209874314E+03 -0.16884479766E+02  0.10709699004E+03  0.18678564880E+03  0.00000000000E+00 0.  1.
         12    1    5    5    0    0  0.13664806875E+02 -0.11726582796E+02  0.64966058076E+02  0.67415342415E+02  0.00000000000E+00 0. -1.
        -11    1    3    3    0    0 -0.40741750488E+02 -0.27896743455E+02 -0.21902306848E+03  0.22451998364E+03  0.00000000000E+00 0.  1.
         12    1    3    3    0    0  0.11920229707E+00 -0.37650498049E+02 -0.27434474682E+02  0.46585669616E+02  0.00000000000E+00 0. -1.
          5    1    4    4  501    0 -0.11616850249E+02  0.19151152188E+03 -0.47513903394E+02  0.19771513659E+03  0.47000000000E+01 0. -1.
         -5    1    4    4    0  501 -0.17768463539E+02  0.23497637564E+02  0.43506408650E+02  0.52751823297E+02  0.47000000000E+01 0. -1.
          1    1    1    2  502    0 -0.61386909800E+02 -0.37723503893E+02 -0.12823577577E+04  0.12843803309E+04  0.00000000000E+00 0. -1.
          1    1    1    2  503    0 -0.34368778239E+02 -0.83127351482E+02  0.63149530167E+03  0.63786964618E+03  0.00000000000E+00 0. -1.
<mgrwt>
<rscale>  0 0.80699072E+02</rscale>
<asrwt>0</asrwt>
<pdfrwt beam="1">  1        2 0.14476170E+00 0.90384547E+02</pdfrwt>
<pdfrwt beam="2">  1        2 0.25200647E+00 0.72051478E+02</pdfrwt>
<totfact> 0.60848424E+01</totfact>
</mgrwt>
</event>
<event>
13    1  0.1595792E-008  0.3146553E+03  0.7546771E-02  0.1224200E+00
          2   -1    0    0  502    0  0.00000000000E+00  0.00000000000E+00  0.10695566299E+04  0.10695566299E+04  0.00000000000E+00 0. -1.
          2   -1    0    0  503    0 -0.00000000000E+00 -0.00000000000E+00 -0.21036178659E+04  0.21036178659E+04  0.00000000000E+00 0. -1.
         24    2    1    2    0    0 -0.27469543049E+02 -0.13158238534E+02 -0.31371379450E+02  0.92058003572E+02  0.81011095145E+02 0.  0.
         25    2    1    2    0    0  0.48432234588E+02 -0.14276987959E+03 -0.18973005723E+03  0.27267638749E+03  0.12500399121E+03 0.  0.
         24    2    1    2    0    0 -0.11516573559E+03 -0.21724865438E+03  0.99847055566E+02  0.27716002630E+03  0.79925722957E+02 0.  0.
        -13    1    5    5    0    0  0.22257754461E+00  0.61230649139E+01 -0.11202871491E+01  0.62286842912E+01  0.00000000000E+00 0.  1.
         14    1    5    5    0    0 -0.11538831314E+03 -0.22337171929E+03  0.10096734272E+03  0.27093134201E+03  0.00000000000E+00 0. -1.
        -13    1    3    3    0    0  0.23424033388E+02 -0.24893629261E+02 -0.14953154718E+02  0.37309180559E+02  0.00000000000E+00 0.  1.
         14    1    3    3    0    0 -0.50893576437E+02  0.11735390727E+02 -0.16418224732E+02  0.54748823014E+02  0.00000000000E+00 0. -1.
          5    1    4    4  501    0  0.47215311878E+02 -0.26663167253E+01 -0.17589412152E+02  0.50674178242E+02  0.47000000000E+01 0. -1.
         -5    1    4    4    0  501  0.12169227104E+01 -0.14010356286E+03 -0.17214064507E+03  0.22200220925E+03  0.47000000000E+01 0. -1.
          1    1    1    2  502    0  0.45812258228E+02  0.34588054415E+03  0.77115009203E+03  0.84640686331E+03  0.00000000000E+00 0. -1.
          1    1    1    2  503    0  0.48390785827E+02  0.27296228342E+02 -0.16839569469E+04  0.16848732152E+04  0.00000000000E+00 0. -1.
<mgrwt>
<rscale>  0 0.13221872E+03</rscale>
<asrwt>0</asrwt>
<pdfrwt beam="1">  1        2 0.15728774E+00 0.31465529E+03</pdfrwt>
<pdfrwt beam="2">  1        2 0.30935557E+00 0.55558548E+02</pdfrwt>
<totfact> 0.34416756E+01</totfact>
</mgrwt>
</event>
<event>
13    1  0.1595792E-008  0.1441721E+03  0.7546771E-02  0.1263923E+00
          2   -1    0    0  502    0  0.00000000000E+00  0.00000000000E+00  0.24000551485E+04  0.24000551485E+04  0.00000000000E+00 0. -1.
          2   -1    0    0  503    0 -0.00000000000E+00 -0.00000000000E+00 -0.92445960903E+03  0.92445960903E+03  0.00000000000E+00 0. -1.
         24    2    1    2    0    0  0.70271521959E+02 -0.18115312810E+02 -0.20908680577E+02  0.10949463219E+03  0.79282092542E+02 0.  0.
         25    2    1    2    0    0 -0.17561554203E+03 -0.59893322831E+02 -0.11324967712E+03  0.25075562088E+03  0.12499945325E+03 0.  0.
         24    2    1    2    0    0  0.77866279058E+02  0.21518888185E+03 -0.11921820225E+02  0.24294879670E+03  0.80700531183E+02 0.  0.
        -11    1    3    3    0    0  0.51254442532E+02 -0.49192707273E+02 -0.14251262409E+02  0.72457151534E+02  0.00000000000E+00 0.  1.
         12    1    3    3    0    0  0.19017079427E+02  0.31077394463E+02 -0.66574181683E+01  0.37037480654E+02  0.00000000000E+00 0. -1.
        -13    1    5    5    0    0  0.83102345207E+02  0.21050404161E+03 -0.25414559549E+02  0.22773636326E+03  0.00000000000E+00 0.  1.
         14    1    5    5    0    0 -0.52360661489E+01  0.46848402463E+01  0.13492739324E+02  0.15212433445E+02  0.00000000000E+00 0. -1.
          5    1    4    4  501    0 -0.13127237736E+03 -0.34546992301E+01 -0.12072395091E+03  0.17843972183E+03  0.47000000000E+01 0.  1.
         -5    1    4    4    0  501 -0.44343164669E+02 -0.56438623601E+02  0.74742737852E+01  0.72315899050E+02  0.47000000000E+01 0.  1.
          1    1    1    2  502    0  0.10094456953E+03 -0.10255611457E+03  0.21660960437E+04  0.21708707086E+04  0.00000000000E+00 0. -1.
          1    1    1    2  503    0 -0.73466828519E+02 -0.34624131647E+02 -0.54442032634E+03  0.55044499917E+03  0.00000000000E+00 0. -1.
<mgrwt>
<rscale>  0 0.10820921E+03</rscale>
<asrwt>0</asrwt>
<pdfrwt beam="1">  1        2 0.35294929E+00 0.14417214E+03</pdfrwt>
<pdfrwt beam="2">  1        2 0.13594994E+00 0.81217026E+02</pdfrwt>
<totfact> 0.28638705E+01</totfact>
</mgrwt>
</event>
<event>
13    1  0.1595792E-008  0.1038525E+03  0.7546771E-02  0.1422295E+00
          2   -1    0    0  503    0  0.00000000000E+00  0.00000000000E+00  0.14781822041E+04  0.14781822041E+04  0.00000000000E+00 0. -1.
          2   -1    0    0  502    0 -0.00000000000E+00 -0.00000000000E+00 -0.30388720855E+03  0.30388720855E+03  0.00000000000E+00 0. -1.
         24    2    1    2    0    0 -0.15076707753E+03 -0.54528151327E+02  0.17501127817E+03  0.25056925174E+03  0.80324164956E+02 0.  0.
         25    2    1    2    0    0  0.60648736032E+01  0.20782376505E+01  0.36635561800E+03  0.38714696123E+03  0.12500091591E+03 0.  0.
         24    2    1    2    0    0  0.64425416477E+02 -0.60257183940E+01  0.75593608753E+03  0.76291363058E+03  0.80068069357E+02 0.  0.
        -13    1    5    5    0    0  0.67676119046E+02  0.22660998881E+02  0.60904111554E+03  0.61320849503E+03  0.00000000000E+00 0.  1.
         14    1    5    5    0    0 -0.32507025690E+01 -0.28686717275E+02  0.14689497199E+03  0.14970513555E+03  0.00000000000E+00 0. -1.
        -13    1    3    3    0    0 -0.15753783402E+03 -0.45278357318E+02  0.17402017383E+03  0.23906342189E+03  0.00000000000E+00 0.  1.
         14    1    3    3    0    0  0.67707564864E+01 -0.92497940088E+01  0.99110434125E+00  0.11505829845E+02  0.00000000000E+00 0. -1.
          5    1    4    4  501    0  0.37018974950E+02  0.95115650110E+01  0.28866836434E+02  0.48127524568E+02  0.47000000000E+01 0.  1.
         -5    1    4    4    0  501 -0.30954101347E+02 -0.74333273605E+01  0.33748878157E+03  0.33901943666E+03  0.47000000000E+01 0.  1.
          1    1    1    2  502    0  0.63885639688E+02  0.81962328727E+02 -0.23971431589E+03  0.26127026530E+03  0.00000000000E+00 0. -1.
          1    1    1    2  503    0  0.16391147764E+02 -0.23486696657E+02  0.11670632777E+03  0.12016930384E+03  0.00000000000E+00 0. -1.
<mgrwt>
<rscale>  0 0.54538207E+02</rscale>
<asrwt>0</asrwt>
<pdfrwt beam="1">  1        2 0.21737973E+00 0.28640786E+02</pdfrwt>
<pdfrwt beam="2">  1        2 0.44689296E-01 0.10385246E+03</pdfrwt>
<totfact> 0.31718425E+02</totfact>
</mgrwt>
</event>
<event>
13    1  0.1595792E-008  0.6954693E+02  0.7546771E-02  0.1534400E+00
          2   -1    0    0  503    0  0.00000000000E+00  0.00000000000E+00  0.16145098896E+04  0.16145098896E+04  0.00000000000E+00 0. -1.
         -1   -1    0    0    0  501 -0.00000000000E+00 -0.00000000000E+00 -0.10028484796E+04  0.10028484796E+04  0.00000000000E+00 0.  1.
         24    2    1    2    0    0 -0.78796249553E+02 -0.34656199444E+02 -0.21482999332E+03  0.24538960118E+03  0.81573459141E+02 0.  0.
         25    2    1    2    0    0 -0.21192321567E+01 -0.16451311628E+03  0.42037595775E+03  0.46841129084E+03  0.12499653980E+03 0.  0.
         24    2    1    2    0    0  0.98694067187E+02  0.11551619029E+03  0.11185711170E+04  0.11318136092E+04  0.81952383662E+02 0.  0.
        -11    1    5    5    0    0  0.41255825773E+01 -0.47481347610E+01  0.57414579136E+01  0.85164284935E+01  0.00000000000E+00 0.  1.
         12    1    5    5    0    0  0.94568484610E+02  0.12026432505E+03  0.11128296590E+04  0.11232971807E+04  0.00000000000E+00 0. -1.
        -13    1    3    3    0    0 -0.59711246926E+02  0.17984420276E+02 -0.12092811374E+03  0.13606057869E+03  0.00000000000E+00 0.  1.
         14    1    3    3    0    0 -0.19085002627E+02 -0.52640619721E+02 -0.93901879578E+02  0.10932902249E+03  0.00000000000E+00 0. -1.
          5    1    4    4  502    0  0.54110762539E+02 -0.77780211029E+02  0.13619220127E+03  0.16597632825E+03  0.47000000000E+01 0.  1.
         -5    1    4    4    0  502 -0.56229994695E+02 -0.86732905254E+02  0.28418375648E+03  0.30243496260E+03  0.47000000000E+01 0.  1.
          1    1    1    2  503    0 -0.13000742546E+02  0.14286165047E+02  0.24677651677E+02  0.31338479714E+02  0.00000000000E+00 0. -1.
         -2    1    1    2    0  501 -0.47778429313E+01  0.69366960391E+02 -0.73713332303E+03  0.74040538821E+03  0.00000000000E+00 0.  1.
<mgrwt>
<rscale>  0 0.36652138E+02</rscale>
<asrwt>0</asrwt>
<pdfrwt beam="1">  1        2 0.23742793E+00 0.19316154E+02</pdfrwt>
<pdfrwt beam="2">  1       -1 0.14747772E+00 0.69546929E+02</pdfrwt>
<totfact> 0.81490205E+00</totfact>
</mgrwt>
</event>
<event>
13    1  0.1595792E-008  0.2667673E+03  0.7546771E-02  0.1242309E+00
         -1   -1    0    0    0  501 -0.00000000000E+00  0.00000000000E+00  0.91481151789E+03  0.91481151789E+03  0.00000000000E+00 0.  1.
          2   -1    0    0  503    0  0.00000000000E+00 -0.00000000000E+00 -0.11790834325E+04  0.11790834325E+04  0.00000000000E+00 0. -1.
         24    2    1    2    0    0 -0.45086292269E+02  0.11535153996E+03  0.48153648323E+02  0.15504814163E+03  0.79889929610E+02 0.  0.
         25    2    1    2    0    0  0.25371514213E+02  0.66615980977E+02  0.57571509048E+02  0.15498745643E+03  0.12500092136E+03 0.  0.
         24    2    1    2    0    0  0.31430387416E+03 -0.10998418586E+03 -0.11129761489E+03  0.36035663034E+03  0.81155994829E+02 0.  0.
        -11    1    5    5    0    0  0.55612812995E+02 -0.13856841002E+02  0.11234012938E+02  0.58403767502E+02  0.00000000000E+00 0.  1.
         12    1    5    5    0    0  0.25869106117E+03 -0.96127344861E+02 -0.12253162783E+03  0.30195286284E+03  0.00000000000E+00 0. -1.
        -13    1    3    3    0    0 -0.63087240658E+02  0.53347814658E+02  0.31004779687E+02  0.88245598338E+02  0.00000000000E+00 0.  1.
         14    1    3    3    0    0  0.18000948388E+02  0.62003725304E+02  0.17148868637E+02  0.66802543290E+02  0.00000000000E+00 0. -1.
          5    1    4    4  502    0 -0.37910825898E+02  0.52947349337E+02 -0.41422119902E+01  0.65420948039E+02  0.47000000000E+01 0. -1.
         -5    1    4    4    0  502  0.63282340111E+02  0.13668631639E+02  0.61713721038E+02  0.89566508390E+02  0.47000000000E+01 0. -1.
          1    1    1    2  503    0 -0.24624329159E+03 -0.96949448923E+02 -0.81893391512E+03  0.86063215814E+03  0.00000000000E+00 0. -1.
         -2    1    1    2    0  501 -0.48345804515E+02  0.24966113846E+02  0.56023445805E+03  0.56287056384E+03  0.00000000000E+00 0.  1.
<mgrwt>
<rscale>  0 0.12047921E+03</rscale>
<asrwt>0</asrwt>
<pdfrwt beam="2">  1        2 0.17339462E+00 0.26676730E+03</pdfrwt>
<pdfrwt beam="1">  1       -1 0.13453111E+00 0.54411613E+02</pdfrwt>
<totfact> 0.14037189E+01</totfact>
</mgrwt>
</event>
<event>
13    1  0.1595792E-008  0.1733075E+03  0.7546771E-02  0.1410157E+00
          2   -1    0    0  503    0  0.00000000000E+00  0.00000000000E+00  0.10865612626E+04  0.10865612626E+04  0.00000000000E+00 0. -1.
          2   -1    0    0  502    0 -0.00000000000E+00 -0.00000000000E+00 -0.25320666883E+03  0.25320666883E+03  0.00000000000E+00 0. -1.
         24    2    1    2    0    0 -0.69028626703E+02 -0.15726071377E+01  0.89764724710E+02  0.13977938676E+03  0.81933795001E+02 0.  0.
         25    2    1    2    0    0 -0.13058374873E+03  0.95254092911E+02  0.10755555723E+03  0.23090627678E+03  0.12499621241E+03 0.  0.
         24    2    1    2    0    0  0.16268973061E+03  0.86356455751E+02  0.11612255982E+03  0.23111537694E+03  0.77488596996E+02 0.  0.
        -13    1    3    3    0    0 -0.31432278528E+02 -0.38108418417E+02  0.65425718801E+02  0.81980268164E+02  0.00000000000E+00 0.  1.
         14    1    3    3    0    0 -0.37596348175E+02  0.36535811279E+02  0.24339005909E+02  0.57799118596E+02  0.00000000000E+00 0. -1.
        -13    1    5    5    0    0  0.19977544137E+01 -0.11506101924E+02  0.68535912435E+01  0.13540794552E+02  0.00000000000E+00 0.  1.
         14    1    5    5    0    0  0.16069197620E+03  0.97862557675E+02  0.10926896858E+03  0.21757458239E+03  0.00000000000E+00 0. -1.
          5    1    4    4  501    0 -0.11830184363E+03  0.85960720540E+02  0.27029484203E+02  0.14878593582E+03  0.47000000000E+01 0. -1.
         -5    1    4    4    0  501 -0.12281905104E+02  0.92933723711E+01  0.80526073027E+02  0.82120340964E+02  0.47000000000E+01 0. -1.
          1    1    1    2  502    0  0.16925876530E+02 -0.83005653628E+01 -0.96212982534E+02  0.98042453507E+02  0.00000000000E+00 0. -1.
          1    1    1    2  503    0  0.19996768294E+02 -0.17173737616E+03  0.61612473452E+03  0.63992443741E+03  0.00000000000E+00 0. -1.
<mgrwt>
<rscale>  0 0.57158826E+02</rscale>
<asrwt>0</asrwt>
<pdfrwt beam="1">  1        2 0.15978842E+00 0.17330746E+03</pdfrwt>
<pdfrwt beam="2">  1        2 0.37236275E-01 0.18851649E+02</pdfrwt>
<totfact> 0.51902497E+02</totfact>
</mgrwt>
</event>
<event>
13    1  0.1595792E-008  0.2107133E+03  0.7546771E-02  0.1229457E+00
          2   -1    0    0  502    0  0.00000000000E+00  0.00000000000E+00  0.32805074968E+04  0.32805074968E+04  0.00000000000E+00 0. -1.
          2   -1    0    0  503    0 -0.00000000000E+00 -0.00000000000E+00 -0.11981690407E+04  0.11981690407E+04  0.00000000000E+00 0. -1.
         24    2    1    2    0    0  0.38263434636E+02  0.44915533409E+02 -0.16979496796E+03  0.19740793489E+03  0.81596973219E+02 0.  0.
         25    2    1    2    0    0  0.13028778873E+01  0.82791581063E+02 -0.20274150968E+03  0.25215976533E+03  0.12499713644E+03 0.  0.
         24    2    1    2    0    0  0.12447538025E+03  0.14589885715E+03  0.12482563342E+04  0.12654833281E+04  0.80768687251E+02 0.  0.
        -11    1    3    3    0    0  0.31042762234E+02 -0.66820368716E+01 -0.17092031406E+02  0.36061617289E+02  0.00000000000E+00 0.  1.
         12    1    3    3    0    0  0.72206724018E+01  0.51597570281E+02 -0.15270293656E+03  0.16134631760E+03  0.00000000000E+00 0. -1.
        -13    1    5    5    0    0  0.12304946080E+03  0.13905327278E+03  0.12428525924E+04  0.12566461511E+04  0.00000000000E+00 0.  1.
         14    1    5    5    0    0  0.14259194431E+01  0.68455843700E+01  0.54037417795E+01  0.88371769726E+01  0.00000000000E+00 0. -1.
          5    1    4    4  501    0  0.18758772703E+02 -0.27036791053E+02 -0.79083316865E+02  0.85785433671E+02  0.47000000000E+01 0. -1.
         -5    1    4    4    0  501 -0.17455894815E+02  0.10982837212E+03 -0.12365819282E+03  0.16637433166E+03  0.47000000000E+01 0. -1.
          1    1    1    2  502    0 -0.77376275234E+02 -0.21838639913E+03  0.19749292220E+04  0.19884730672E+04  0.00000000000E+00 0. -1.
          1    1    1    2  503    0 -0.86665417535E+02 -0.55219572490E+02 -0.76831062246E+03  0.77515244202E+03  0.00000000000E+00 0. -1.
<mgrwt>
<rscale>  0 0.12866075E+03</rscale>
<asrwt>0</asrwt>
<pdfrwt beam="1">  1        2 0.48242757E+00 0.21071332E+03</pdfrwt>
<pdfrwt beam="2">  1        2 0.17620133E+00 0.78559760E+02</pdfrwt>
<totfact> 0.65076409E+00</totfact>
</mgrwt>
</event>
<event>
13    1  0.1595792E-008  0.6611380E+02  0.7546771E-02  0.1421245E+00
          2   -1    0    0  503    0  0.00000000000E+00  0.00000000000E+00  0.10865284365E+04  0.10865284365E+04  0.00000000000E+00 0. -1.
          2   -1    0    0  502    0 -0.00000000000E+00 -0.00000000000E+00 -0.22432586896E+04  0.22432586896E+04  0.00000000000E+00 0. -1.
         24    2    1    2    0    0 -0.32100718331E+02  0.27043063351E+02 -0.27394564935E+03  0.28865076295E+03  0.80692383516E+02 0.  0.
         25    2    1    2    0    0 -0.90982951677E+02 -0.14956099385E+03 -0.20324646951E+03  0.29593676277E+03  0.12499220702E+03 0.  0.
         24    2    1    2    0    0  0.93665699211E+02  0.79280033890E+02 -0.35617673124E+03  0.38535350427E+03  0.81097918575E+02 0.  0.
        -11    1    5    5    0    0  0.11277211127E+02 -0.87333569185E+01 -0.11337626365E+03  0.11426996182E+03  0.00000000000E+00 0.  1.
         12    1    5    5    0    0  0.82388488084E+02  0.88013390809E+02 -0.24280046759E+03  0.27108354246E+03  0.00000000000E+00 0. -1.
        -13    1    3    3    0    0 -0.58783720998E+02  0.12888108400E+02 -0.19707687736E+03  0.20606048817E+03  0.00000000000E+00 0.  1.
         14    1    3    3    0    0  0.26683002666E+02  0.14154954951E+02 -0.76868771989E+02  0.82590274779E+02  0.00000000000E+00 0. -1.
          5    1    4    4  501    0 -0.97049523257E+02 -0.16753197534E+03 -0.19466516952E+03  0.27459459381E+03  0.47000000000E+01 0. -1.
         -5    1    4    4    0  501  0.60665715805E+01  0.17970981492E+02 -0.85812999894E+01  0.21342168963E+02  0.47000000000E+01 0. -1.
          1    1    1    2  502    0  0.64771503284E+02  0.14829186919E+02 -0.13402752555E+04  0.13419213885E+04  0.00000000000E+00 0. -1.
          1    1    1    2  503    0 -0.35353532487E+02  0.28408709687E+02  0.10169138525E+04  0.10179247076E+04  0.00000000000E+00 0. -1.
<mgrwt>
<rscale>  0 0.54758405E+02</rscale>
<asrwt>0</asrwt>
<pdfrwt beam="1">  1        2 0.15978360E+00 0.45353358E+02</pdfrwt>
<pdfrwt beam="2">  1        2 0.32989098E+00 0.66113802E+02</pdfrwt>
<totfact> 0.31339583E+01</totfact>
</mgrwt>
</event>
<event>
13    1  0.1595792E-008  0.6639666E+02  0.7546771E-02  0.1518169E+00
          2   -1    0    0  502    0  0.00000000000E+00  0.00000000000E+00  0.48040639794E+04  0.48040639794E+04  0.00000000000E+00 0. -1.
          2   -1    0    0  503    0 -0.00000000000E+00 -0.00000000000E+00 -0.11115897546E+03  0.11115897546E+03  0.00000000000E+00 0. -1.
         24    2    1    2    0    0 -0.63561832364E+02 -0.31095329530E+02  0.17215393739E+03  0.20294251139E+03  0.80880521241E+02 0.  0.
         25    2    1    2    0    0  0.22455882015E+03  0.81976817056E+02  0.23395030206E+04  0.23550051508E+04  0.12501205837E+03 0.  0.
         24    2    1    2    0    0 -0.10482416262E+03 -0.18520628660E+02  0.48915405018E+03  0.50770449540E+03  0.84622993863E+02 0.  0.
        -11    1    3    3    0    0 -0.46980685049E+02  0.49004062854E+01  0.15059026834E+03  0.15782467383E+03  0.00000000000E+00 0.  1.
         12    1    3    3    0    0 -0.16581147315E+02 -0.35995735815E+02  0.21563669051E+02  0.45117837560E+02  0.00000000000E+00 0. -1.
        -13    1    5    5    0    0 -0.21766871093E+02  0.30805640962E+02  0.17568283057E+03  0.17968650798E+03  0.00000000000E+00 0.  1.
         14    1    5    5    0    0 -0.83057291531E+02 -0.49326269622E+02  0.31347121961E+03  0.32801798742E+03  0.00000000000E+00 0. -1.
          5    1    4    4  501    0  0.61907812185E+02  0.40758395059E+02  0.12924730487E+04  0.12946051505E+04  0.47000000000E+01 0. -1.
         -5    1    4    4    0  501  0.16265100797E+03  0.41218421997E+02  0.10470299719E+04  0.10604000003E+04  0.47000000000E+01 0. -1.
          1    1    1    2  502    0 -0.13183208274E+02  0.18272098215E+02  0.17567395013E+04  0.17568839865E+04  0.00000000000E+00 0. -1.
          1    1    1    2  503    0 -0.42989616889E+02 -0.50632957081E+02 -0.64645505535E+02  0.92686810760E+02  0.00000000000E+00 0. -1.
<mgrwt>
<rscale>  0 0.38678332E+02</rscale>
<asrwt>0</asrwt>
<pdfrwt beam="1">  1        2 0.70647986E+00 0.22531457E+02</pdfrwt>
<pdfrwt beam="2">  1        2 0.16346911E-01 0.66396656E+02</pdfrwt>
<totfact> 0.13938073E+01</totfact>
</mgrwt>
</event>
<event>
13    1  0.1595792E-008  0.2650715E+03  0.7546771E-02  0.1233520E+00
          2   -1    0    0  503    0  0.00000000000E+00  0.00000000000E+00  0.19017722332E+04  0.19017722332E+04  0.00000000000E+00 0. -1.
         -1   -1    0    0    0  501 -0.00000000000E+00 -0.00000000000E+00 -0.12084757143E+04  0.12084757143E+04  0.00000000000E+00 0.  1.
         24    2    1    2    0    0  0.17252434870E+02  0.71122878515E+02  0.36383930059E+02  0.11377645494E+03  0.79152896182E+02 0.  0.
         25    2    1    2    0    0  0.31593604455E+02 -0.16687325297E+03  0.17482879514E+02  0.21159905479E+03  0.12499468193E+03 0.  0.
         24    2    1    2    0    0 -0.26301615163E+03 -0.44514720322E+02  0.72861451638E+03  0.77999640384E+03  0.79725906637E+02 0.  0.
        -11    1    3    3    0    0 -0.17004589734E+02  0.49875428619E+02 -0.85795742978E+01  0.53388421470E+02  0.00000000000E+00 0.  1.
         12    1    3    3    0    0  0.34257024605E+02  0.21247449897E+02  0.44963504356E+02  0.60388033466E+02  0.00000000000E+00 0. -1.
        -13    1    5    5    0    0 -0.21670413206E+03 -0.38618904549E+01  0.57359186515E+03  0.61317470823E+03  0.00000000000E+00 0.  1.
         14    1    5    5    0    0 -0.46312019566E+02 -0.40652829867E+02  0.15502265122E+03  0.16682169561E+03  0.00000000000E+00 0. -1.
          5    1    4    4  502    0 -0.24031045542E+02 -0.33975665240E+02 -0.38573558779E+02  0.56937214677E+02  0.47000000000E+01 0. -1.
         -5    1    4    4    0  502  0.55624649997E+02 -0.13289758773E+03  0.56056438294E+02  0.15466184011E+03  0.47000000000E+01 0. -1.
          1    1    1    2  503    0  0.24939828863E+03  0.91832129267E+02  0.93852174925E+03  0.97542591731E+03  0.00000000000E+00 0. -1.
         -2    1    1    2    0  501 -0.35228176332E+02  0.48432965511E+02 -0.10277065563E+04  0.10294501166E+04  0.00000000000E+00 0.  1.
<mgrwt>
<rscale>  0 0.12599624E+03</rscale>
<asrwt>0</asrwt>
<pdfrwt beam="1">  1        2 0.27967239E+00 0.26507149E+03</pdfrwt>
<pdfrwt beam="2">  1       -1 0.17771702E+00 0.59889703E+02</pdfrwt>
<totfact> 0.28711419E+00</totfact>
</mgrwt>
</event>
<event>
13    1  0.1595792E-008  0.8699150E+02  0.7546771E-02  0.1323319E+00
          2   -1    0    0  503    0  0.00000000000E+00  0.00000000000E+00  0.13560113687E+04  0.13560113687E+04  0.00000000000E+00 0. -1.
          2   -1    0    0  502    0 -0.00000000000E+00 -0.00000000000E+00 -0.13621225974E+04  0.13621225974E+04  0.00000000000E+00 0. -1.
         24    2    1    2    0    0 -0.93564968140E+02 -0.40254935917E+02 -0.65293512400E+03  0.66628410609E+03  0.85060982484E+02 0.  0.
         25    2    1    2    0    0 -0.24423522988E+02 -0.10610181072E+02  0.23601185629E+02  0.12996409416E+03  0.12499826155E+03 0.  0.
         24    2    1    2    0    0 -0.34744262635E+02  0.21341336116E+02  0.28813949827E+03  0.30209162767E+03  0.81070121693E+02 0.  0.
        -11    1    5    5    0    0 -0.38524850362E+02 -0.32685988788E+01  0.52819061598E+02  0.65457628296E+02  0.00000000000E+00 0.  1.
         12    1    5    5    0    0  0.37805877263E+01  0.24609934995E+02  0.23532043667E+03  0.23663399937E+03  0.00000000000E+00 0. -1.
        -11    1    3    3    0    0 -0.84922559349E+02 -0.64597221284E+02 -0.51163945927E+03  0.52264670512E+03  0.00000000000E+00 0.  1.
         12    1    3    3    0    0 -0.86424087902E+01  0.24342285367E+02 -0.14129566473E+03  0.14363740097E+03  0.00000000000E+00 0. -1.
          5    1    4    4  501    0  0.88794638774E+01  0.14750074594E+02  0.67088101583E+02  0.69421271620E+02  0.47000000000E+01 0.  1.
         -5    1    4    4    0  501 -0.33302986865E+02 -0.25360255666E+02 -0.43486915954E+02  0.60542822537E+02  0.47000000000E+01 0.  1.
          1    1    1    2  502    0  0.75967943619E+02  0.39409024734E+02 -0.63796140395E+03  0.64367612400E+03  0.00000000000E+00 0. -1.
          1    1    1    2  503    0  0.76764810144E+02 -0.98852438613E+01  0.97304461534E+03  0.97611801416E+03  0.00000000000E+00 0. -1.
<mgrwt>
<rscale>  0 0.82055018E+02</rscale>
<asrwt>0</asrwt>
<pdfrwt beam="1">  1        2 0.19941344E+00 0.77398670E+02</pdfrwt>
<pdfrwt beam="2">  1        2 0.20031215E+00 0.86991495E+02</pdfrwt>
<totfact> 0.56854574E+01</totfact>
</mgrwt>
</event>
<event>
13    1  0.1595792E-008  0.4721907E+02  0.7546771E-02  0.1514710E+00
          2   -1    0    0  503    0  0.00000000000E+00  0.00000000000E+00  0.21209826187E+04  0.21209826187E+04  0.00000000000E+00 0. -1.
          2   -1    0    0  502    0 -0.00000000000E+00 -0.00000000000E+00 -0.12900190554E+04  0.12900190554E+04  0.00000000000E+00 0. -1.
         24    2    1    2    0    0  0.24238897214E+03  0.12167277718E+03 -0.27118801940E+03  0.39769519275E+03  0.10517531056E+03 0.  0.
         25    2    1    2    0    0 -0.23004423356E+03 -0.72301259845E+02 -0.28669180623E+03  0.39492304477E+03  0.12499679182E+03 0.  0.
         24    2    1    2    0    0 -0.73494099710E+02 -0.79617910380E+02  0.19572555030E+03  0.23787917700E+03  0.80855534536E+02 0.  0.
        -11    1    3    3    0    0  0.96509541607E+02  0.10589234728E+02 -0.46393141086E+02  0.10760365725E+03  0.00000000000E+00 0.  1.
         12    1    3    3    0    0  0.14587943053E+03  0.11108354245E+03 -0.22479487831E+03  0.29009153550E+03  0.00000000000E+00 0. -1.
        -13    1    5    5    0    0 -0.50808122393E+02 -0.39319432852E+01  0.11037008199E+03  0.12156677374E+03  0.00000000000E+00 0.  1.
         14    1    5    5    0    0 -0.22685977317E+02 -0.75685967095E+02  0.85355468309E+02  0.11631240326E+03  0.00000000000E+00 0. -1.
          5    1    4    4  501    0 -0.11608008309E+03  0.13633743907E+02 -0.18767757750E+03  0.22114571612E+03  0.47000000000E+01 0. -1.
         -5    1    4    4    0  501 -0.11396415047E+03 -0.85935003752E+02 -0.99014228733E+02  0.17377732865E+03  0.47000000000E+01 0. -1.
          1    1    1    2  502    0  0.31731738566E+02 -0.66809558660E+01 -0.59293823293E+03  0.59382428923E+03  0.00000000000E+00 0. -1.
          1    1    1    2  503    0  0.29417622566E+02  0.36927348915E+02  0.17860560715E+04  0.17866799703E+04  0.00000000000E+00 0. -1.
<mgrwt>
<rscale>  0 0.39130465E+02</rscale>
<asrwt>0</asrwt>
<pdfrwt beam="1">  1        2 0.31190921E+00 0.47219073E+02</pdfrwt>
<pdfrwt beam="2">  1        2 0.18970868E+00 0.32427433E+02</pdfrwt>
<totfact> 0.30045579E+01</totfact>
</mgrwt>
</event>
<event>
13    1  0.1595792E-008  0.5942003E+02  0.7546771E-02  0.1439139E+00
          2   -1    0    0  502    0  0.00000000000E+00  0.00000000000E+00  0.13140326981E+04  0.13140326981E+04  0.00000000000E+00 0. -1.
          2   -1    0    0  503    0 -0.00000000000E+00 -0.00000000000E+00 -0.30317206366E+04  0.30317206366E+04  0.00000000000E+00 0. -1.
         24    2    1    2    0    0  0.10529095243E+03 -0.54805364478E+02 -0.99084463008E+03  0.10011818386E+04  0.80636098361E+02 0.  0.
         25    2    1    2    0    0 -0.13328014484E+03 -0.12676514117E+03 -0.21872494373E+03  0.31192725709E+03  0.12500005872E+03 0.  0.
         24    2    1    2    0    0  0.89662041419E+02  0.15366489612E+03  0.37891223417E+02  0.20220937391E+03  0.88321594830E+02 0.  0.
        -11    1    5    5    0    0 -0.85050355733E+01  0.11690448581E+02  0.25304473903E+02  0.29143071520E+02  0.00000000000E+00 0.  1.
         12    1    5    5    0    0  0.98167076992E+02  0.14197444754E+03  0.12586749515E+02  0.17306630239E+03  0.00000000000E+00 0. -1.
        -11    1    3    3    0    0 -0.20259933046E+01 -0.20831546345E+02 -0.34241715951E+03  0.34305621857E+03  0.00000000000E+00 0.  1.
         12    1    3    3    0    0  0.10731694574E+03 -0.33973818133E+02 -0.64842747057E+03  0.65812562004E+03  0.00000000000E+00 0. -1.
          5    1    4    4  501    0 -0.13678170529E+03 -0.75649973865E+02 -0.20652619283E+03  0.25905078995E+03  0.47000000000E+01 0.  1.
         -5    1    4    4    0  501  0.35015604497E+01 -0.51115167301E+02 -0.12198750903E+02  0.52876467141E+02  0.47000000000E+01 0.  1.
          1    1    1    2  502    0 -0.57248045886E+02 -0.15934625056E+02  0.11411519018E+04  0.11426980853E+04  0.00000000000E+00 0. -1.
          1    1    1    2  503    0 -0.44248031226E+01  0.43840234582E+02 -0.16871614899E+04  0.16877367799E+04  0.00000000000E+00 0. -1.
<mgrwt>
<rscale>  0 0.51168571E+02</rscale>
<asrwt>0</asrwt>
<pdfrwt beam="1">  1        2 0.19324010E+00 0.59420026E+02</pdfrwt>
<pdfrwt beam="2">  1        2 0.44584127E+00 0.44062967E+02</pdfrwt>
<totfact> 0.10213280E+01</totfact>
</mgrwt>
</event>
<event>
13    1  0.1595792E-008  0.9588736E+02  0.7546771E-02  0.1407860E+00
         -1   -1    0    0    0  501 -0.00000000000E+00  0.00000000000E+00  0.29758653400E+03  0.29758653400E+03  0.00000000000E+00 0.  1.
          2   -1    0    0  503    0  0.00000000000E+00 -0.00000000000E+00 -0.22888179699E+04  0.22888179699E+04  0.00000000000E+00 0. -1.
         24    2    1    2    0    0  0.10570647615E+03  0.74063312216E+02  0.18974415806E+03  0.24298818030E+03  0.79882269193E+02 0.  0.
         25    2    1    2    0    0  0.10874523304E+02 -0.28271256965E+02 -0.26871798095E+03  0.29791282888E+03  0.12500072439E+03 0.  0.
         24    2    1    2    0    0 -0.19147467165E+02 -0.33650167827E+02 -0.14046261001E+03  0.16544815241E+03  0.78386140547E+02 0.  0.
        -13    1    3    3    0    0  0.74845287789E+02  0.23207870514E+02  0.15605492066E+03  0.17462405510E+03  0.00000000000E+00 0.  1.
         14    1    3    3    0    0  0.30861188356E+02  0.50855441702E+02  0.33689237404E+02  0.68364125199E+02  0.00000000000E+00 0. -1.
        -13    1    5    5    0    0  0.52464243658E+01  0.88815400523E+01  0.53447168542E+01  0.11617776060E+02  0.00000000000E+00 0.  1.
         14    1    5    5    0    0 -0.24393891531E+02 -0.42531707879E+02 -0.14580732687E+03  0.15383037635E+03  0.00000000000E+00 0. -1.
          5    1    4    4  502    0 -0.22119005698E+02 -0.27128851841E+02 -0.26139749765E+03  0.26377256641E+03  0.47000000000E+01 0.  1.
         -5    1    4    4    0  502  0.32993529002E+02 -0.11424051244E+01 -0.73204833018E+01  0.34140262466E+02  0.47000000000E+01 0.  1.
          1    1    1    2  503    0 -0.86961412079E+02  0.20929392054E+02 -0.18191534410E+04  0.18213510284E+04  0.00000000000E+00 0. -1.
         -2    1    1    2    0  501 -0.10472120205E+02 -0.33071279477E+02  0.47358437991E+02  0.58704313954E+02  0.00000000000E+00 0.  1.
<mgrwt>
<rscale>  0 0.57674112E+02</rscale>
<asrwt>0</asrwt>
<pdfrwt beam="2">  1        2 0.33659086E+00 0.95887362E+02</pdfrwt>
<pdfrwt beam="1">  1       -1 0.43762728E-01 0.34689693E+02</pdfrwt>
<totfact> 0.40151120E+01</totfact>
</mgrwt>
</event>
<event>
13    1  0.1595792E-008  0.1139963E+03  0.7546771E-02  0.1418265E+00
          2   -1    0    0  502    0  0.00000000000E+00  0.00000000000E+00  0.10658588277E+04  0.10658588277E+04  0.00000000000E+00 0. -1.
          2   -1    0    0  503    0 -0.00000000000E+00 -0.00000000000E+00 -0.18622733809E+04  0.18622733809E+04  0.00000000000E+00 0. -1.
         24    2    1    2    0    0 -0.12707760569E+02  0.78038751774E+02 -0.53569715314E+03  0.54670769107E+03  0.75275000089E+02 0.  0.
         25    2    1    2    0    0 -0.29792077417E+03  0.28233402564E+02 -0.39386397917E+03  0.51020282147E+03  0.12499668893E+03 0.  0.
         24    2    1    2    0    0  0.41086903092E+03 -0.16935853140E+03 -0.24286574422E+02  0.45463295109E+03  0.92766425992E+02 0.  0.
        -13    1    3    3    0    0  0.31797370902E+02  0.34008604751E+02 -0.22563590466E+03  0.23038927810E+03  0.00000000000E+00 0.  1.
         14    1    3    3    0    0 -0.44505131471E+02  0.44030147023E+02 -0.31006124848E+03  0.31631841296E+03  0.00000000000E+00 0. -1.
        -13    1    5    5    0    0  0.10874419719E+03 -0.51192881493E+01 -0.20229971087E+02  0.11072831283E+03  0.00000000000E+00 0.  1.
         14    1    5    5    0    0  0.30212483374E+03 -0.16423924326E+03 -0.40566033350E+01  0.34390463826E+03  0.00000000000E+00 0. -1.
          5    1    4    4  501    0 -0.24906777168E+03 -0.21222822323E+02 -0.26921040920E+03  0.36739828184E+03  0.47000000000E+01 0. -1.
         -5    1    4    4    0  501 -0.48853002494E+02  0.49456224887E+02 -0.12465356997E+03  0.14280453963E+03  0.47000000000E+01 0. -1.
          1    1    1    2  502    0 -0.10773768168E+03  0.37238419996E+02  0.78259223112E+03  0.79085062318E+03  0.00000000000E+00 0. -1.
          1    1    1    2  503    0  0.74971854994E+01  0.25847957071E+02 -0.62515907759E+03  0.62573812172E+03  0.00000000000E+00 0. -1.
<mgrwt>
<rscale>  0 0.55389653E+02</rscale>
<asrwt>0</asrwt>
<pdfrwt beam="1">  1        2 0.15674395E+00 0.11399627E+03</pdfrwt>
<pdfrwt beam="2">  1        2 0.27386373E+00 0.26913281E+02</pdfrwt>
<totfact> 0.51036099E+01</totfact>
</mgrwt>
</event>
<event>
13    1  0.1595792E-008  0.4779303E+02  0.7546771E-02  0.1503906E+00
          2   -1    0    0  502    0  0.00000000000E+00  0.00000000000E+00  0.60767194730E+03  0.60767194730E+03  0.00000000000E+00 0. -1.
          2   -1    0    0  503    0 -0.00000000000E+00 -0.00000000000E+00 -0.28832805746E+04  0.28832805746E+04  0.00000000000E+00 0. -1.
         24    2    1    2    0    0 -0.10509607102E+02  0.19480343292E+02 -0.75803574430E+03  0.76249288774E+03  0.79292361477E+02 0.  0.
         25    2    1    2    0    0 -0.26814711984E+02 -0.25792375335E+01 -0.47826276702E+03  0.49506144090E+03  0.12499949880E+03 0.  0.
         24    2    1    2    0    0 -0.29778356318E+02  0.16151270211E+02 -0.42601805296E+00  0.88263970563E+02  0.81502962975E+02 0.  0.
        -13    1    3    3    0    0 -0.28737746128E+02  0.16039139201E+01 -0.10261800411E+03  0.10657807166E+03  0.00000000000E+00 0.  1.
         14    1    3    3    0    0  0.18228139026E+02  0.17876429372E+02 -0.65541774019E+03  0.65591481607E+03  0.00000000000E+00 0. -1.
        -13    1    5    5    0    0 -0.21555427450E+02 -0.17739913148E+02 -0.31119493830E+02  0.41806265885E+02  0.00000000000E+00 0.  1.
         14    1    5    5    0    0 -0.82229288679E+01  0.33891183359E+02  0.30693475777E+02  0.46457704678E+02  0.00000000000E+00 0. -1.
          5    1    4    4  501    0 -0.65149093142E+01  0.70798524020E+01  0.45990519841E+01  0.11653738995E+02  0.47000000000E+01 0. -1.
         -5    1    4    4    0  501 -0.20299802670E+02 -0.96590899355E+01 -0.48286181901E+03  0.48340770190E+03  0.47000000000E+01 0. -1.
          1    1    1    2  502    0  0.34435668020E+02  0.16335396405E+01  0.55223092126E+03  0.55330594980E+03  0.00000000000E+00 0. -1.
          1    1    1    2  503    0  0.32667007384E+02 -0.34685915610E+02 -0.15911150192E+04  0.15918282729E+04  0.00000000000E+00 0. -1.
<mgrwt>
<rscale>  0 0.40591079E+02</rscale>
<asrwt>0</asrwt>
<pdfrwt beam="1">  1        2 0.89363522E-01 0.34474392E+02</pdfrwt>
<pdfrwt beam="2">  1        2 0.42401185E+00 0.47793032E+02</pdfrwt>
<totfact> 0.31838768E+01</totfact>
</mgrwt>
</event>
<event>
13    1  0.1595792E-008  0.7813614E+02  0.7546771E-02  0.1525709E+00
          2   -1    0    0  503    0  0.00000000000E+00  0.00000000000E+00  0.23109475120E+04  0.23109475120E+04  0.00000000000E+00 0. -1.
          2   -1    0    0  502    0 -0.00000000000E+00 -0.00000000000E+00 -0.45731322567E+02  0.45731322567E+02  0.00000000000E+00 0. -1.
         24    2    1    2    0    0 -0.49543156491E+02 -0.21424003409E+02  0.14396633119E+03  0.17316670281E+03  0.79667372043E+02 0.  0.
         25    2    1    2    0    0 -0.51852681176E+02 -0.30394469862E+02  0.57656536874E+03  0.59301327237E+03  0.12499836973E+03 0.  0.
         24    2    1    2    0    0  0.42379651198E+02  0.76702781189E+02  0.47991853728E+03  0.49365803261E+03  0.75479131269E+02 0.  0.
        -13    1    5    5    0    0 -0.13477398639E+02  0.48214033740E+02  0.26891000036E+03  0.27353029378E+03  0.00000000000E+00 0.  1.
         14    1    5    5    0    0  0.55857049837E+02  0.28488747448E+02  0.21100853692E+03  0.22012773883E+03  0.00000000000E+00 0. -1.
        -13    1    3    3    0    0  0.18428880036E+02 -0.12169529571E+02  0.64557887015E+02  0.68230798362E+02  0.00000000000E+00 0.  1.
         14    1    3    3    0    0 -0.67972036527E+02 -0.92544738387E+01  0.79408444174E+02  0.10493590445E+03  0.00000000000E+00 0. -1.
          5    1    4    4  501    0 -0.59699510402E+02 -0.29456806725E+02  0.12799512251E+03  0.14434880114E+03  0.47000000000E+01 0. -1.
         -5    1    4    4    0  501  0.78468292259E+01 -0.93766313647E+00  0.44857024623E+03  0.44866447123E+03  0.47000000000E+01 0. -1.
          1    1    1    2  502    0  0.76653167432E+02 -0.20363185716E+02  0.82623115902E+02  0.11452923946E+03  0.00000000000E+00 0. -1.
          1    1    1    2  503    0 -0.17636980963E+02 -0.45211222013E+01  0.98214283633E+03  0.98231158733E+03  0.00000000000E+00 0. -1.
<mgrwt>
<rscale>  0 0.37717947E+02</rscale>
<asrwt>0</asrwt>
<pdfrwt beam="1">  1        2 0.33984514E+00 0.18207242E+02</pdfrwt>
<pdfrwt beam="2">  1        2 0.67251960E-02 0.78136138E+02</pdfrwt>
<totfact> 0.12176543E+03</totfact>
</mgrwt>
</event>
<event>
13    1  0.1595792E-008  0.3909656E+02  0.7546771E-02  0.1727375E+00
         -3   -1    0    0    0  501 -0.00000000000E+00  0.00000000000E+00  0.13515427593E+03  0.13515427593E+03  0.00000000000E+00 0.  1.
          2   -1    0    0  503    0  0.00000000000E+00 -0.00000000000E+00 -0.26473871949E+04  0.26473871949E+04  0.00000000000E+00 0. -1.
         24    2    1    2    0    0 -0.62831828495E+02 -0.19213432346E+03 -0.31269730289E+03  0.38068722248E+03  0.79244691957E+02 0.  0.
         25    2    1    2    0    0  0.65450529836E+02  0.19595575601E+03 -0.67190090984E+03  0.71397339208E+03  0.12499896713E+03 0.  0.
         24    2    1    2    0    0  0.30842718677E+02 -0.16795645679E+02 -0.24769173396E+03  0.26276155546E+03  0.80368357875E+02 0.  0.
        -11    1    3    3    0    0 -0.34080025907E+02 -0.15430518909E+03 -0.17887256236E+03  0.23867746670E+03  0.00000000000E+00 0.  1.
         12    1    3    3    0    0 -0.28751802588E+02 -0.37829134376E+02 -0.13382474053E+03  0.14200975579E+03  0.00000000000E+00 0. -1.
        -13    1    5    5    0    0  0.55149032168E+02 -0.73060384282E+01 -0.11780416217E+03  0.13027898745E+03  0.00000000000E+00 0.  1.
         14    1    5    5    0    0 -0.24306313491E+02 -0.94896072512E+01 -0.12988757180E+03  0.13248256802E+03  0.00000000000E+00 0. -1.
          5    1    4    4  502    0  0.74318899953E+02  0.76455138110E+02 -0.19576731309E+03  0.22296999329E+03  0.47000000000E+01 0.  1.
         -5    1    4    4    0  502 -0.88683701170E+01  0.11950061790E+03 -0.47613359675E+03  0.49100339879E+03  0.47000000000E+01 0.  1.
          1    1    1    2  503    0 -0.38984853114E+02  0.32210586871E+01 -0.13518138248E+04  0.13523796845E+04  0.00000000000E+00 0. -1.
         -4    1    1    2    0  501  0.55234330957E+01  0.97531544448E+01  0.71870852553E+02  0.72739616313E+02  0.00000000000E+00 0.  1.
<mgrwt>
<rscale>  0 0.20933633E+02</rscale>
<asrwt>0</asrwt>
<pdfrwt beam="2">  1        2 0.38932168E+00 0.39096556E+02</pdfrwt>
<pdfrwt beam="1">  1       -3 0.19875627E-01 0.11208583E+02</pdfrwt>
<totfact> 0.48240836E+01</totfact>
</mgrwt>
</event>
<event>
13    1  0.1595792E-008  0.1563885E+03  0.7546771E-02  0.1233152E+00
         -1   -1    0    0    0  501  0.00000000000E+00  0.00000000000E+00  0.16050218205E+04  0.16050218205E+04  0.00000000000E+00 0.  1.
         -3   -1    0    0    0  502 -0.00000000000E+00 -0.00000000000E+00 -0.17703892608E+04  0.17703892608E+04  0.00000000000E+00 0.  1.
         24    2    1    2    0    0  0.61922655479E+02 -0.10516974597E+03 -0.53000568150E+03  0.54995360108E+03  0.81534349723E+02 0.  0.
         25    2    1    2    0    0 -0.20143142503E+03 -0.20143603126E+02 -0.12172179312E+03  0.26725389832E+03  0.12501226944E+03 0.  0.
         24    2    1    2    0    0 -0.30969191088E+02  0.74571974780E+02  0.73451348434E+02  0.13564306730E+03  0.80522486927E+02 0.  0.
        -13    1    3    3    0    0  0.68476832385E+02 -0.74269584477E+02 -0.48210706465E+03  0.49257717115E+03  0.00000000000E+00 0.  1.
         14    1    3    3    0    0 -0.65541769058E+01 -0.30900161489E+02 -0.47898616854E+02  0.57376429930E+02  0.00000000000E+00 0. -1.
        -13    1    5    5    0    0 -0.27324358198E+02  0.91636870990E+02  0.55292816412E+02  0.11045918804E+03  0.00000000000E+00 0.  1.
         14    1    5    5    0    0 -0.36448328901E+01 -0.17064896210E+02  0.18158532022E+02  0.25183879261E+02  0.00000000000E+00 0. -1.
          5    1    4    4  503    0 -0.59895805462E+02 -0.32882319431E+02 -0.10321141970E+03  0.12386864656E+03  0.47000000000E+01 0.  1.
         -5    1    4    4    0  503 -0.14153561957E+03  0.12738716305E+02 -0.18510373419E+02  0.14338525177E+03  0.47000000000E+01 0.  1.
         -2    1    1    2    0  501  0.13465544344E+03  0.14613157419E+03  0.14081576118E+04  0.14221091327E+04  0.00000000000E+00 0.  1.
         -4    1    1    2    0  502  0.35822517205E+02 -0.95390199875E+02 -0.99524892594E+03  0.10004513819E+04  0.00000000000E+00 0.  1.
<mgrwt>
<rscale>  0 0.12623460E+03</rscale>
<asrwt>0</asrwt>
<pdfrwt beam="1">  1       -1 0.23603262E+00 0.15638855E+03</pdfrwt>
<pdfrwt beam="2">  1       -3 0.26035136E+00 0.10189476E+03</pdfrwt>
<totfact> 0.35648877E-02</totfact>
</mgrwt>
</event>
<event>
13    1  0.1595792E-008  0.7994513E+02  0.7546771E-02  0.1439236E+00
          2   -1    0    0  503    0  0.00000000000E+00  0.00000000000E+00  0.29829704162E+04  0.29829704162E+04  0.00000000000E+00 0. -1.
          2   -1    0    0  502    0 -0.00000000000E+00 -0.00000000000E+00 -0.15298033685E+04  0.15298033685E+04  0.00000000000E+00 0. -1.
         24    2    1    2    0    0 -0.52947272764E+02  0.34814514683E+02 -0.65444693099E+02  0.11565358591E+03  0.71255034582E+02 0.  0.
         25    2    1    2    0    0  0.27832379367E+01 -0.83948956974E+01  0.37702651144E+02  0.13084817707E+03  0.12498613864E+03 0.  0.
         24    2    1    2    0    0 -0.64909995761E+02  0.39541618160E+02  0.63247472948E+03  0.64230770731E+03  0.82207422529E+02 0.  0.
        -13    1    3    3    0    0 -0.12920168839E+01 -0.19849366820E+02 -0.17235641295E+02  0.26319840456E+02  0.00000000000E+00 0.  1.
         14    1    3    3    0    0 -0.51655255880E+02  0.54663881503E+02 -0.48209051805E+02  0.89333745454E+02  0.00000000000E+00 0. -1.
        -13    1    5    5    0    0 -0.68821074275E+02  0.35285977805E+02  0.30082651686E+03  0.31060913338E+03  0.00000000000E+00 0.  1.
         14    1    5    5    0    0  0.39110785143E+01  0.42556403555E+01  0.33164821263E+03  0.33169857393E+03  0.00000000000E+00 0. -1.
          5    1    4    4  501    0 -0.53853956718E+02 -0.50794004638E+01  0.48618286785E+02  0.72882623260E+02  0.47000000000E+01 0.  1.
         -5    1    4    4    0  501  0.56637194655E+02 -0.33154952337E+01 -0.10915635642E+02  0.57965553810E+02  0.47000000000E+01 0.  1.
          1    1    1    2  502    0 -0.87402252229E+01 -0.31537669358E+02 -0.13857253022E+04  0.13861116943E+04  0.00000000000E+00 0. -1.
          1    1    1    2  503    0  0.12381425581E+03 -0.34423567788E+02  0.22341596623E+04  0.22378526200E+04  0.00000000000E+00 0. -1.
<mgrwt>
<rscale>  0 0.51149925E+02</rscale>
<asrwt>0</asrwt>
<pdfrwt beam="1">  1        2 0.43867212E+00 0.79945126E+02</pdfrwt>
<pdfrwt beam="2">  1        2 0.22497108E+00 0.32726383E+02</pdfrwt>
<totfact> 0.80984090E+00</totfact>
</mgrwt>
</event>
<event>
13    1  0.1595792E-008  0.8643206E+02  0.7546771E-02  0.1375950E+00
          2   -1    0    0  502    0  0.00000000000E+00  0.00000000000E+00  0.16271750895E+03  0.16271750895E+03  0.00000000000E+00 0. -1.
          2   -1    0    0  503    0 -0.00000000000E+00 -0.00000000000E+00 -0.17479247210E+04  0.17479247210E+04  0.00000000000E+00 0. -1.
         24    2    1    2    0    0  0.52009306585E+02 -0.15455627219E+02 -0.35540227184E+03  0.36869245879E+03  0.81728269011E+02 0.  0.
         25    2    1    2    0    0 -0.34809917071E+02  0.54202821148E+02 -0.36645210775E+02  0.14532211917E+03  0.12500388275E+03 0.  0.
         24    2    1    2    0    0 -0.18518681348E+02  0.58142238616E+02  0.22359977265E+01  0.99285771867E+02  0.78289228756E+02 0.  0.
        -13    1    5    5    0    0  0.20788114045E+02  0.41249245880E+02  0.23146118175E+02  0.51666127761E+02  0.00000000000E+00 0.  1.
         14    1    5    5    0    0 -0.39306795393E+02  0.16892992736E+02 -0.20910120449E+02  0.47619644106E+02  0.00000000000E+00 0. -1.
        -13    1    3    3    0    0  0.62239918895E+02  0.15377435734E+01 -0.33300331240E+03  0.33877334344E+03  0.00000000000E+00 0.  1.
         14    1    3    3    0    0 -0.10230612310E+02 -0.16993370793E+02 -0.22398959447E+02  0.29919115352E+02  0.00000000000E+00 0. -1.
          5    1    4    4  501    0 -0.11109234161E+02  0.85573249634E+02 -0.54198783212E+02  0.10200879491E+03  0.47000000000E+01 0. -1.
         -5    1    4    4    0  501 -0.23700682910E+02 -0.31370428486E+02  0.17553572437E+02  0.43313324267E+02  0.47000000000E+01 0. -1.
          1    1    1    2  502    0 -0.43296311547E+02 -0.74994251435E+02  0.13312467049E+02  0.87612385659E+02  0.00000000000E+00 0. -1.
          1    1    1    2  503    0  0.44615603381E+02 -0.21895181109E+02 -0.12087081942E+04  0.12097294945E+04  0.00000000000E+00 0. -1.
<mgrwt>
<rscale>  0 0.65540466E+02</rscale>
<asrwt>0</asrwt>
<pdfrwt beam="1">  1        2 0.23929045E-01 0.86432062E+02</pdfrwt>
<pdfrwt beam="2">  1        2 0.25704776E+00 0.49698602E+02</pdfrwt>
<totfact> 0.43822181E+02</totfact>
</mgrwt>
</event>
<event>
13    1  0.1595792E-008  0.1446651E+03  0.7546771E-02  0.1403047E+00
          2   -1    0    0  503    0  0.00000000000E+00  0.00000000000E+00  0.27939976278E+04  0.27939976278E+04  0.00000000000E+00 0. -1.
          2   -1    0    0  502    0 -0.00000000000E+00 -0.00000000000E+00 -0.82756899607E+03  0.82756899607E+03  0.00000000000E+00 0. -1.
         24    2    1    2    0    0 -0.64200744781E+02  0.12822181496E+03  0.10834610876E+03  0.19728145238E+03  0.81354303549E+02 0.  0.
         25    2    1    2    0    0 -0.93109537307E+02  0.93433349267E+02  0.48063057608E+03  0.51383710053E+03  0.12499455399E+03 0.  0.
         24    2    1    2    0    0  0.35565885948E+02 -0.10848824239E+03  0.63709108682E+03  0.65216590677E+03  0.80004287787E+02 0.  0.
        -13    1    5    5    0    0 -0.20885368676E+02 -0.51928390102E+02  0.19341086521E+03  0.20134676334E+03  0.00000000000E+00 0.  1.
         14    1    5    5    0    0  0.56451254623E+02 -0.56559852287E+02  0.44368022161E+03  0.45081914343E+03  0.00000000000E+00 0. -1.
        -13    1    3    3    0    0 -0.53879693238E+02  0.12934620414E+03  0.11793771195E+03  0.18314684210E+03  0.00000000000E+00 0.  1.
         14    1    3    3    0    0 -0.10321051543E+02 -0.11243891807E+01 -0.95916031917E+01  0.14134610280E+02  0.00000000000E+00 0. -1.
          5    1    4    4  501    0  0.31046558820E+02  0.15099435327E+02  0.91181766305E+02  0.97611916630E+02  0.47000000000E+01 0.  1.
         -5    1    4    4    0  501 -0.12415609613E+03  0.78333913940E+02  0.38944880978E+03  0.41622518390E+03  0.47000000000E+01 0.  1.
          1    1    1    2  502    0  0.99282376457E+02 -0.10506371882E+03 -0.75198137866E+03  0.76574889431E+03  0.00000000000E+00 0. -1.
          1    1    1    2  503    0  0.22462019684E+02 -0.81032030221E+01  0.14923422387E+04  0.14925332699E+04  0.00000000000E+00 0. -1.
<mgrwt>
<rscale>  0 0.58774571E+02</rscale>
<asrwt>0</asrwt>
<pdfrwt beam="1">  1        2 0.41088200E+00 0.23878949E+02</pdfrwt>
<pdfrwt beam="2">  1        2 0.12170132E+00 0.14466508E+03</pdfrwt>
<totfact> 0.26747597E+01</totfact>
</mgrwt>
</event>
<event>
13    1  0.1595792E-008  0.7843890E+02  0.7546771E-02  0.1360362E+00
          2   -1    0    0  502    0  0.00000000000E+00  0.00000000000E+00  0.12441792190E+04  0.12441792190E+04  0.00000000000E+00 0. -1.
          2   -1    0    0  503    0 -0.00000000000E+00 -0.00000000000E+00 -0.39623504416E+04  0.39623504416E+04  0.00000000000E+00 0. -1.
         24    2    1    2    0    0  0.10981646124E+02  0.20543692776E+02 -0.98767975301E+02  0.12960675632E+03  0.80623560286E+02 0.  0.
         25    2    1    2    0    0  0.60230218966E+02  0.48850022301E+02 -0.13656047869E+03  0.20071624608E+03  0.12499697254E+03 0.  0.
         24    2    1    2    0    0  0.16913870958E+02  0.39761498318E+02  0.28348381058E+02  0.95287720082E+02  0.80056624401E+02 0.  0.
        -11    1    5    5    0    0  0.99883908597E+01 -0.19143047289E+02 -0.10879657507E+02  0.24178320019E+02  0.00000000000E+00 0.  1.
         12    1    5    5    0    0  0.69254800978E+01  0.58904545607E+02  0.39228038565E+02  0.71109400063E+02  0.00000000000E+00 0. -1.
        -11    1    3    3    0    0 -0.29868563805E+02  0.38190610970E+01 -0.71851795403E+02  0.77906333722E+02  0.00000000000E+00 0.  1.
         12    1    3    3    0    0  0.40850209929E+02  0.16724631679E+02 -0.26916179898E+02  0.51700422594E+02  0.00000000000E+00 0. -1.
          5    1    4    4  501    0 -0.10733892491E+02  0.32397724189E+02 -0.12135647651E+03  0.12615194557E+03  0.47000000000E+01 0. -1.
         -5    1    4    4    0  501  0.70964111457E+02  0.16452298111E+02 -0.15204002180E+02  0.74564300508E+02  0.47000000000E+01 0. -1.
          1    1    1    2  502    0 -0.42249628953E+02 -0.45822870495E+02  0.11335883712E+04  0.11353005601E+04  0.00000000000E+00 0. -1.
          1    1    1    2  503    0 -0.45876107095E+02 -0.63332342900E+02 -0.36447795208E+04  0.36456183780E+04  0.00000000000E+00 0. -1.
<mgrwt>
<rscale>  0 0.69920895E+02</rscale>
<asrwt>0</asrwt>
<pdfrwt beam="1">  1        2 0.18296753E+00 0.62327896E+02</pdfrwt>
<pdfrwt beam="2">  1        2 0.58269860E+00 0.78438900E+02</pdfrwt>
<totfact> 0.28529303E+00</totfact>
</mgrwt>
</event>
<event>
13    1  0.1595792E-008  0.1188824E+03  0.7546771E-02  0.1263495E+00
         -1   -1    0    0    0  501 -0.00000000000E+00  0.00000000000E+00  0.23326184172E+03  0.23326184172E+03  0.00000000000E+00 0.  1.
          2   -1    0    0  503    0  0.00000000000E+00 -0.00000000000E+00 -0.30680249313E+04  0.30680249313E+04  0.00000000000E+00 0. -1.
         24    2    1    2    0    0 -0.82232398073E+02 -0.43741244850E+02 -0.45084116120E+02  0.13066834253E+03  0.79788310035E+02 0.  0.
         25    2    1    2    0    0  0.30439055621E+02 -0.17319368311E+03 -0.11297456347E+04  0.11501618377E+04  0.12499786353E+03 0.  0.
         24    2    1    2    0    0 -0.37247052727E+02  0.16820599909E+02 -0.47304795841E+03  0.48176788790E+03  0.81582175353E+02 0.  0.
        -13    1    5    5    0    0  0.11985988848E+02  0.25847365414E+02 -0.30753557130E+03  0.30885251795E+03  0.00000000000E+00 0.  1.
         14    1    5    5    0    0 -0.49233041575E+02 -0.90267655054E+01 -0.16551238711E+03  0.17291536995E+03  0.00000000000E+00 0. -1.
        -13    1    3    3    0    0 -0.43092351997E+02  0.10785793760E+02  0.79462249956E+01  0.45126784057E+02  0.00000000000E+00 0.  1.
         14    1    3    3    0    0 -0.39140046077E+02 -0.54527038610E+02 -0.53030341116E+02  0.85541558469E+02  0.00000000000E+00 0. -1.
          5    1    4    4  502    0  0.76545382770E+01 -0.17776299283E+03 -0.10852011591E+04  0.10997008317E+04  0.47000000000E+01 0.  1.
         -5    1    4    4    0  502  0.22784517344E+02  0.45693097202E+01 -0.44544475623E+02  0.50461006039E+02  0.47000000000E+01 0.  1.
          1    1    1    2  503    0  0.31637498077E+02  0.97777562828E+02 -0.13410322420E+04  0.13449642587E+04  0.00000000000E+00 0. -1.
         -2    1    1    2    0  501  0.57402897102E+02  0.10233676523E+03  0.15414686161E+03  0.19372444621E+03  0.00000000000E+00 0.  1.
<mgrwt>
<rscale>  0 0.10843523E+03</rscale>
<asrwt>0</asrwt>
<pdfrwt beam="2">  1        2 0.45118014E+00 0.98906121E+02</pdfrwt>
<pdfrwt beam="1">  1       -1 0.34303212E-01 0.11888243E+03</pdfrwt>
<totfact> 0.24612652E+01</totfact>
</mgrwt>
</event>
<event>
13    1  0.1595792E-008  0.2372367E+03  0.7546771E-02  0.1214947E+00
         -1   -1    0    0    0  501 -0.00000000000E+00  0.00000000000E+00  0.12400597328E+04  0.12400597328E+04  0.00000000000E+00 0.  1.
          2   -1    0    0  503    0  0.00000000000E+00 -0.00000000000E+00 -0.10894282342E+04  0.10894282342E+04  0.00000000000E+00 0. -1.
         24    2    1    2    0    0 -0.26425518614E+02 -0.22177105980E+01  0.18722552916E+03  0.20545640761E+03  0.80347435438E+02 0.  0.
         25    2    1    2    0    0 -0.63528020020E+01 -0.24165377959E+03  0.39900546924E+03  0.48297610721E+03  0.12499459333E+03 0.  0.
         24    2    1    2    0    0 -0.18788782985E+02 -0.54435273639E+02  0.11968818668E+02  0.10199240176E+03  0.83324546294E+02 0.  0.
        -11    1    5    5    0    0  0.32350834776E+02 -0.26946293640E+02 -0.24327677094E+01  0.42173423033E+02  0.00000000000E+00 0.  1.
         12    1    5    5    0    0 -0.51139617761E+02 -0.27488979999E+02  0.14401586378E+02  0.59818978730E+02  0.00000000000E+00 0. -1.
        -11    1    3    3    0    0 -0.40810316448E+02 -0.31334425236E+02  0.10175242282E+03  0.11402141765E+03  0.00000000000E+00 0.  1.
         12    1    3    3    0    0  0.14384797834E+02  0.29116714638E+02  0.85473106341E+02  0.91434989953E+02  0.00000000000E+00 0. -1.
          5    1    4    4  502    0 -0.53046045318E+02 -0.75920742557E+02  0.90132762804E+02  0.12932071375E+03  0.47000000000E+01 0. -1.
         -5    1    4    4    0  502  0.46693243316E+02 -0.16573303703E+03  0.30887270644E+03  0.35365539346E+03  0.47000000000E+01 0. -1.
          1    1    1    2  503    0  0.81832678043E+02  0.22294445272E+03 -0.97597387283E+03  0.10044529937E+04  0.00000000000E+00 0. -1.
         -2    1    1    2    0  501 -0.30265574442E+02  0.75362311109E+02  0.52840555430E+03  0.53461005672E+03  0.00000000000E+00 0.  1.
<mgrwt>
<rscale>  0 0.13880420E+03</rscale>
<asrwt>0</asrwt>
<pdfrwt beam="2">  1        2 0.16021004E+00 0.23723673E+03</pdfrwt>
<pdfrwt beam="1">  1       -1 0.18236172E+00 0.81212579E+02</pdfrwt>
<totfact> 0.69903349E+00</totfact>
</mgrwt>
</event>
<event>
13    1  0.1595792E-008  0.6111572E+02  0.7546771E-02  0.1556187E+00
          4   -1    0    0  503    0 -0.00000000000E+00  0.00000000000E+00  0.51225388915E+03  0.51225388915E+03  0.00000000000E+00 0. -1.
          2   -1    0    0  502    0  0.00000000000E+00 -0.00000000000E+00 -0.14485153752E+04  0.14485153752E+04  0.00000000000E+00 0. -1.
         24    2    1    2    0    0  0.56399769460E+02 -0.16371763903E+02  0.63176884496E+02  0.11779187014E+03  0.80216190935E+02 0.  0.
         25    2    1    2    0    0 -0.56599259431E+02 -0.20359706405E+03  0.16156115416E+03  0.29391036205E+03  0.12500421483E+03 0.  0.
         24    2    1    2    0    0 -0.13307810172E+02  0.17915317526E+03 -0.51639165307E+03  0.55399175991E+03  0.89294863589E+02 0.  0.
        -13    1    3    3    0    0  0.35907315016E+02  0.26560790859E+02  0.52698085290E+02  0.69078933663E+02  0.00000000000E+00 0.  1.
         14    1    3    3    0    0  0.20492454444E+02 -0.42932554761E+02  0.10478799206E+02  0.48712936478E+02  0.00000000000E+00 0. -1.
        -13    1    5    5    0    0  0.82512995608E+01  0.33558981786E+02 -0.29815561515E+02  0.45642709290E+02  0.00000000000E+00 0.  1.
         14    1    5    5    0    0 -0.21559109733E+02  0.14559419348E+03 -0.48657609156E+03  0.50834905062E+03  0.00000000000E+00 0. -1.
          5    1    4    4  501    0  0.11552303130E+02 -0.33304093112E+02 -0.15620608736E+02  0.38842138753E+02  0.47000000000E+01 0. -1.
         -5    1    4    4    0  501 -0.68151562561E+02 -0.17029297094E+03  0.17718176290E+03  0.25506822330E+03  0.47000000000E+01 0. -1.
          1    1    1    2  502    0  0.12518093683E+02  0.59883667331E+02 -0.81817600953E+03  0.82046007755E+03  0.00000000000E+00 0. -1.
          3    1    1    2  503    0  0.98920646046E+00 -0.19068014639E+02  0.17356813792E+03  0.17461519468E+03  0.00000000000E+00 0. -1.
<mgrwt>
<rscale>  0 0.34160249E+02</rscale>
<asrwt>0</asrwt>
<pdfrwt beam="2">  1        2 0.21301696E+00 0.61115722E+02</pdfrwt>
<pdfrwt beam="1">  1        4 0.75331455E-01 0.19093656E+02</pdfrwt>
<totfact> 0.12341929E+01</totfact>
</mgrwt>
</event>
<event>
13    1  0.1595792E-008  0.8055070E+02  0.7546771E-02  0.1582136E+00
          2   -1    0    0  502    0  0.00000000000E+00  0.00000000000E+00  0.48015520778E+03  0.48015520778E+03  0.00000000000E+00 0. -1.
          2   -1    0    0  503    0 -0.00000000000E+00 -0.00000000000E+00 -0.46281965147E+03  0.46281965147E+03  0.00000000000E+00 0. -1.
         24    2    1    2    0    0  0.11018325997E+02  0.41345545879E+01 -0.13725297261E+03  0.16105387113E+03  0.83435441304E+02 0.  0.
         25    2    1    2    0    0 -0.11337297308E+03  0.69600646853E+02 -0.59587908751E+02  0.19202576517E+03  0.12500197820E+03 0.  0.
         24    2    1    2    0    0  0.80803580950E+02 -0.77392295603E+01  0.85228169497E+02  0.14217298582E+03  0.79750878689E+02 0.  0.
        -11    1    3    3    0    0 -0.60907409732E+01  0.29543984496E+02 -0.12410561635E+03  0.12771902033E+03  0.00000000000E+00 0.  1.
         12    1    3    3    0    0  0.17109066970E+02 -0.25409429908E+02 -0.13147356260E+02  0.33334850794E+02  0.00000000000E+00 0. -1.
        -13    1    5    5    0    0  0.45753762717E+02  0.22275856522E+02  0.70258766632E+01  0.51371037846E+02  0.00000000000E+00 0.  1.
         14    1    5    5    0    0  0.35049818234E+02 -0.30015086083E+02  0.78202292833E+02  0.90801947970E+02  0.00000000000E+00 0. -1.
          5    1    4    4  501    0 -0.33663452513E+02 -0.23533103941E+02 -0.55598244001E+02  0.69284123377E+02  0.47000000000E+01 0. -1.
         -5    1    4    4    0  501 -0.79709520566E+02  0.93133750794E+02 -0.39896647498E+01  0.12274164180E+03  0.47000000000E+01 0. -1.
          1    1    1    2  502    0  0.20088410895E+02 -0.78222566781E+02  0.28242867599E+03  0.29374865315E+03  0.00000000000E+00 0. -1.
          1    1    1    2  503    0  0.14626552377E+01  0.12226594901E+02 -0.15348040782E+03  0.15397358399E+03  0.00000000000E+00 0. -1.
<mgrwt>
<rscale>  0 0.31494173E+02</rscale>
<asrwt>0</asrwt>
<pdfrwt beam="1">  1        2 0.70611060E-01 0.80550697E+02</pdfrwt>
<pdfrwt beam="2">  1        2 0.68061713E-01 0.12313772E+02</pdfrwt>
<totfact> 0.78141018E+02</totfact>
</mgrwt>
</event>
<event>
13    1  0.1595792E-008  0.8319331E+02  0.7546771E-02  0.1442870E+00
          2   -1    0    0  502    0  0.00000000000E+00  0.00000000000E+00  0.54500697259E+03  0.54500697259E+03  0.00000000000E+00 0. -1.
          2   -1    0    0  503    0 -0.00000000000E+00 -0.00000000000E+00 -0.21197449781E+04  0.21197449781E+04  0.00000000000E+00 0. -1.
         24    2    1    2    0    0 -0.87064223608E+02  0.10144571180E+03 -0.16495892744E+04  0.16565045371E+04  0.70647687569E+02 0.  0.
         25    2    1    2    0    0  0.10698864097E+03 -0.61520885180E+02 -0.23712109657E+03  0.29509632384E+03  0.12499614913E+03 0.  0.
         24    2    1    2    0    0 -0.52096401712E+02  0.79746668346E+01  0.96600170472E+00  0.97243835139E+02  0.81717806694E+02 0.  0.
        -11    1    5    5    0    0  0.15767255526E+02 -0.74954128705E+01  0.18528593606E+02  0.25457736387E+02  0.00000000000E+00 0.  1.
         12    1    5    5    0    0 -0.67863657238E+02  0.15470079705E+02 -0.17562591901E+02  0.71786098752E+02  0.00000000000E+00 0. -1.
        -13    1    3    3    0    0 -0.30414209832E+02  0.11242213253E+01 -0.19512247667E+03  0.19748181926E+03  0.00000000000E+00 0.  1.
         14    1    3    3    0    0 -0.56650013776E+02  0.10032149048E+03 -0.14544667977E+04  0.14590227178E+04  0.00000000000E+00 0. -1.
          5    1    4    4  501    0 -0.25876367990E+02 -0.13867459049E+00 -0.58380068846E+02  0.64030680845E+02  0.47000000000E+01 0.  1.
         -5    1    4    4    0  501  0.13286500896E+03 -0.61382210590E+02 -0.17874102772E+03  0.23106564300E+03  0.47000000000E+01 0.  1.
          1    1    1    2  502    0  0.61728507169E+02 -0.55851134104E+02  0.45813096537E+03  0.46563262258E+03  0.00000000000E+00 0. -1.
          1    1    1    2  503    0 -0.29556522821E+02  0.79516406474E+01 -0.14712460170E+03  0.15027463211E+03  0.00000000000E+00 0. -1.
<mgrwt>
<rscale>  0 0.50461233E+02</rscale>
<asrwt>0</asrwt>
<pdfrwt beam="1">  1        2 0.80148084E-01 0.83193312E+02</pdfrwt>
<pdfrwt beam="2">  1        2 0.31172720E+00 0.30607460E+02</pdfrwt>
<totfact> 0.86951982E+01</totfact>
</mgrwt>
</event>
<event>
13    1  0.1595792E-008  0.5600304E+02  0.7546771E-02  0.1426359E+00
          4   -1    0    0  503    0 -0.00000000000E+00  0.00000000000E+00  0.15447009595E+04  0.15447009595E+04  0.00000000000E+00 0. -1.
          2   -1    0    0  502    0  0.00000000000E+00 -0.00000000000E+00 -0.25582470568E+03  0.25582470568E+03  0.00000000000E+00 0. -1.
         24    2    1    2    0    0 -0.22331380551E+02 -0.64845634877E+02  0.69699593761E+03  0.70497042181E+03  0.80475534523E+02 0.  0.
         25    2    1    2    0    0  0.40611863450E+02 -0.88010145457E+02  0.27975403227E+03  0.32137349420E+03  0.12499398005E+03 0.  0.
         24    2    1    2    0    0 -0.80232037274E+02  0.78371617310E+02 -0.43976780361E+02  0.14450173115E+03  0.79796634573E+02 0.  0.
        -11    1    3    3    0    0 -0.14799134639E+02  0.21716968992E+01  0.40546642933E+03  0.40574222847E+03  0.00000000000E+00 0.  1.
         12    1    3    3    0    0 -0.75322459124E+01 -0.67017331776E+02  0.29152950829E+03  0.29922819334E+03  0.00000000000E+00 0. -1.
        -11    1    5    5    0    0 -0.29502119231E+02  0.67788402908E+02 -0.54214587660E+02  0.91678046026E+02  0.00000000000E+00 0.  1.
         12    1    5    5    0    0 -0.50729918043E+02  0.10583214401E+02  0.10237807299E+02  0.52823685123E+02  0.00000000000E+00 0. -1.
          5    1    4    4  501    0  0.79011875073E+01  0.13805702099E+02  0.15957182560E+03  0.16043155456E+03  0.47000000000E+01 0. -1.
         -5    1    4    4    0  501  0.32710675943E+02 -0.10181584756E+03  0.12018220667E+03  0.16094193963E+03  0.47000000000E+01 0. -1.
          1    1    1    2  502    0  0.47030717225E+02  0.20954533390E+02 -0.13030472190E+03  0.14010817742E+03  0.00000000000E+00 0. -1.
          3    1    1    2  503    0  0.14920837149E+02  0.53529629634E+02  0.48640778616E+03  0.48957184055E+03  0.00000000000E+00 0. -1.
<mgrwt>
<rscale>  0 0.53697919E+02</rscale>
<asrwt>0</asrwt>
<pdfrwt beam="2">  1        2 0.37621281E-01 0.51487677E+02</pdfrwt>
<pdfrwt beam="1">  1        4 0.22716190E+00 0.56003042E+02</pdfrwt>
<totfact> 0.71742965E+00</totfact>
</mgrwt>
</event>
<event>
13    1  0.1595792E-008  0.6819377E+02  0.7546771E-02  0.1443234E+00
          2   -1    0    0  502    0  0.00000000000E+00  0.00000000000E+00  0.34074819926E+04  0.34074819926E+04  0.00000000000E+00 0. -1.
          2   -1    0    0  503    0 -0.00000000000E+00 -0.00000000000E+00 -0.76350285281E+03  0.76350285281E+03  0.00000000000E+00 0. -1.
         24    2    1    2    0    0  0.10122450892E+02 -0.90997964395E+00 -0.10407085483E+03  0.13688679243E+03  0.88340019487E+02 0.  0.
         25    2    1    2    0    0  0.80675271154E+02 -0.52063048100E+01 -0.26252214487E+02  0.15117190015E+03  0.12501263794E+03 0.  0.
         24    2    1    2    0    0  0.34137247313E+01 -0.23912352389E+02  0.15086855704E+03  0.17250420330E+03  0.80080737621E+02 0.  0.
        -11    1    3    3    0    0  0.42644746282E+02  0.19078490286E+02 -0.77087986875E+02  0.90139452503E+02  0.00000000000E+00 0.  1.
         12    1    3    3    0    0 -0.32522295390E+02 -0.19988469930E+02 -0.26982867954E+02  0.46747339931E+02  0.00000000000E+00 0. -1.
        -13    1    5    5    0    0 -0.16510439319E+02  0.25434127021E+02  0.50671890935E+02  0.59051925919E+02  0.00000000000E+00 0.  1.
         14    1    5    5    0    0  0.19924164051E+02 -0.49346479410E+02  0.10019666611E+03  0.11345227738E+03  0.00000000000E+00 0. -1.
          5    1    4    4  501    0  0.71839725178E+02 -0.56312393428E+02 -0.35919284574E+02  0.98205482390E+02  0.47000000000E+01 0.  1.
         -5    1    4    4    0  501  0.88355459762E+01  0.51106088618E+02  0.96670700871E+01  0.52966417763E+02  0.47000000000E+01 0.  1.
          1    1    1    2  502    0 -0.26363469814E+02  0.26299756676E+02  0.31646939570E+04  0.31649130401E+04  0.00000000000E+00 0. -1.
          1    1    1    2  503    0 -0.67847976963E+02  0.37288801673E+01 -0.54126030497E+03  0.54550890942E+03  0.00000000000E+00 0. -1.
<mgrwt>
<rscale>  0 0.50392831E+02</rscale>
<asrwt>0</asrwt>
<pdfrwt beam="1">  1        2 0.50110029E+00 0.37238552E+02</pdfrwt>
<pdfrwt beam="2">  1        2 0.11227983E+00 0.68193774E+02</pdfrwt>
<totfact> 0.13444159E+01</totfact>
</mgrwt>
</event>
<event>
13    1  0.1595792E-008  0.9292940E+02  0.7546771E-02  0.1391651E+00
          2   -1    0    0  503    0  0.00000000000E+00  0.00000000000E+00  0.20401760040E+04  0.20401760040E+04  0.00000000000E+00 0. -1.
          2   -1    0    0  502    0 -0.00000000000E+00 -0.00000000000E+00 -0.17319822020E+04  0.17319822020E+04  0.00000000000E+00 0. -1.
         24    2    1    2    0    0  0.59917383639E+01  0.53900967106E+02 -0.50631574957E+03  0.51551972954E+03  0.80397376209E+02 0.  0.
         25    2    1    2    0    0 -0.22389122178E+02 -0.11473804230E+03  0.46791696527E+03  0.49823329206E+03  0.12499614310E+03 0.  0.
         24    2    1    2    0    0  0.34757019737E+02 -0.68179114348E+02  0.26856496711E+03  0.28982639144E+03  0.77561289060E+02 0.  0.
        -11    1    5    5    0    0  0.27351255491E+02 -0.51951352448E+02  0.74077081505E+02  0.94522210101E+02  0.00000000000E+00 0.  1.
         12    1    5    5    0    0  0.74057642463E+01 -0.16227761901E+02  0.19448788561E+03  0.19530418134E+03  0.00000000000E+00 0. -1.
        -11    1    3    3    0    0 -0.12402823915E+02 -0.15696958795E+02 -0.19331203731E+03  0.19434445792E+03  0.00000000000E+00 0.  1.
         12    1    3    3    0    0  0.18394562279E+02  0.69597925901E+02 -0.31300371226E+03  0.32117527162E+03  0.00000000000E+00 0. -1.
          5    1    4    4  501    0 -0.55565553048E+02 -0.45682178391E+01  0.14798951869E+03  0.15821310610E+03  0.47000000000E+01 0. -1.
         -5    1    4    4    0  501  0.33176430869E+02 -0.11016982446E+03  0.31992744657E+03  0.34002018596E+03  0.47000000000E+01 0. -1.
          1    1    1    2  502    0  0.77589467273E+01  0.39951113765E+02 -0.11932367888E+04  0.11939306206E+04  0.00000000000E+00 0. -1.
          1    1    1    2  503    0 -0.26118582650E+02  0.89065075778E+02  0.12712644080E+04  0.12746481723E+04  0.00000000000E+00 0. -1.
<mgrwt>
<rscale>  0 0.61497980E+02</rscale>
<asrwt>0</asrwt>
<pdfrwt beam="1">  1        2 0.30002588E+00 0.92929403E+02</pdfrwt>
<pdfrwt beam="2">  1        2 0.25470326E+00 0.40697577E+02</pdfrwt>
<totfact> 0.18469610E+01</totfact>
</mgrwt>
</event>
<event>
13    1  0.1595792E-008  0.5913535E+02  0.7546771E-02  0.1474324E+00
          2   -1    0    0  503    0  0.00000000000E+00  0.00000000000E+00  0.30345598296E+04  0.30345598296E+04  0.00000000000E+00 0. -1.
          2   -1    0    0  502    0 -0.00000000000E+00 -0.00000000000E+00 -0.10949777238E+04  0.10949777238E+04  0.00000000000E+00 0. -1.
         24    2    1    2    0    0 -0.60198727704E+02  0.98152398535E+02 -0.34821031765E+03  0.37549030529E+03  0.80528031727E+02 0.  0.
         25    2    1    2    0    0  0.80036536260E+02 -0.13992032282E+02  0.28793827087E+02  0.15184615291E+03  0.12500618213E+03 0.  0.
         24    2    1    2    0    0  0.35160273326E+01 -0.14718732831E+02  0.31933392292E+03  0.32972063775E+03  0.80700316499E+02 0.  0.
        -11    1    3    3    0    0  0.13038664585E+02  0.11996751697E+02 -0.11448773839E+03  0.11585064120E+03  0.00000000000E+00 0.  1.
         12    1    3    3    0    0 -0.73237392290E+02  0.86155646838E+02 -0.23372257926E+03  0.25963966409E+03  0.00000000000E+00 0. -1.
        -13    1    5    5    0    0  0.33231751111E+02 -0.33296675202E+02  0.18650179943E+03  0.19234328439E+03  0.00000000000E+00 0.  1.
         14    1    5    5    0    0 -0.29715723778E+02  0.18577942371E+02  0.13283212350E+03  0.13737735336E+03  0.00000000000E+00 0. -1.
          5    1    4    4  501    0  0.10131913507E+03  0.12995062138E+02  0.47145091718E+02  0.11260190249E+03  0.47000000000E+01 0. -1.
         -5    1    4    4    0  501 -0.21282598811E+02 -0.26987094420E+02 -0.18351264631E+02  0.39244250420E+02  0.47000000000E+01 0. -1.
          1    1    1    2  502    0 -0.42527485736E+02 -0.41064057145E+02 -0.66498402096E+03  0.66760661468E+03  0.00000000000E+00 0. -1.
          1    1    1    2  503    0  0.19173649848E+02 -0.28377576277E+02  0.26046486944E+04  0.26048738428E+04  0.00000000000E+00 0. -1.
<mgrwt>
<rscale>  0 0.45002878E+02</rscale>
<asrwt>0</asrwt>
<pdfrwt beam="1">  1        2 0.44625880E+00 0.34247857E+02</pdfrwt>
<pdfrwt beam="2">  1        2 0.16102614E+00 0.59135351E+02</pdfrwt>
<totfact> 0.13819436E+01</totfact>
</mgrwt>
</event>
<event>
13    1  0.1595792E-008  0.8727010E+02  0.7546771E-02  0.1381327E+00
          2   -1    0    0  502    0  0.00000000000E+00  0.00000000000E+00  0.28673327699E+04  0.28673327699E+04  0.00000000000E+00 0. -1.
          2   -1    0    0  503    0 -0.00000000000E+00 -0.00000000000E+00 -0.12987128968E+04  0.12987128968E+04  0.00000000000E+00 0. -1.
         24    2    1    2    0    0 -0.11179517098E+02 -0.51525013188E+02 -0.12706189135E+03  0.15959068808E+03  0.80899041404E+02 0.  0.
         25    2    1    2    0    0 -0.12148194068E+02  0.64852948821E+02  0.50854902905E+03  0.52782077208E+03  0.12497667340E+03 0.  0.
         24    2    1    2    0    0  0.30582177882E+02  0.51789383275E+02  0.52102490064E+03  0.53069247490E+03  0.80932972291E+02 0.  0.
        -13    1    3    3    0    0 -0.49055455733E+01  0.21083236611E+02 -0.44358602218E+02  0.49358411989E+02  0.00000000000E+00 0.  1.
         14    1    3    3    0    0 -0.62739715248E+01 -0.72608249799E+02 -0.82703289133E+02  0.11023227609E+03  0.00000000000E+00 0. -1.
        -13    1    5    5    0    0  0.56190710688E+02  0.22517909634E+02  0.35879281792E+03  0.36386362612E+03  0.00000000000E+00 0.  1.
         14    1    5    5    0    0 -0.25608532805E+02  0.29271473641E+02  0.16223208272E+03  0.16682884878E+03  0.00000000000E+00 0. -1.
          5    1    4    4  501    0  0.31707892923E+02  0.86009731877E+02  0.30759454638E+03  0.32099775609E+03  0.47000000000E+01 0.  1.
         -5    1    4    4    0  501 -0.43856086991E+02 -0.21156783057E+02  0.20095448267E+03  0.20682301598E+03  0.47000000000E+01 0.  1.
          1    1    1    2  502    0  0.37789666634E+02 -0.78899363626E+02  0.18054790244E+04  0.18075972107E+04  0.00000000000E+00 0. -1.
          1    1    1    2  503    0 -0.45044133350E+02  0.13782044718E+02 -0.11393711896E+04  0.11403445210E+04  0.00000000000E+00 0. -1.
<mgrwt>
<rscale>  0 0.64116246E+02</rscale>
<asrwt>0</asrwt>
<pdfrwt beam="1">  1        2 0.42166658E+00 0.87270100E+02</pdfrwt>
<pdfrwt beam="2">  1        2 0.19098719E+00 0.47105400E+02</pdfrwt>
<totfact> 0.11505786E+01</totfact>
</mgrwt>
</event>
<event>
13    1  0.1595792E-008  0.4200381E+02  0.7546771E-02  0.1666767E+00
          2   -1    0    0  503    0  0.00000000000E+00  0.00000000000E+00  0.15268333846E+04  0.15268333846E+04  0.00000000000E+00 0. -1.
         -1   -1    0    0    0  501 -0.00000000000E+00 -0.00000000000E+00 -0.10521456987E+04  0.10521456987E+04  0.00000000000E+00 0.  1.
         24    2    1    2    0    0 -0.12061721483E+03 -0.98697326210E+02 -0.49171185887E+03  0.52059165644E+03  0.70323864239E+02 0.  0.
         25    2    1    2    0    0  0.29789615385E+03 -0.24474556642E+03 -0.26163468759E+02  0.40614127316E+03  0.12499478352E+03 0.  0.
         24    2    1    2    0    0 -0.20067691132E+03  0.36178913601E+03  0.94788969195E+03  0.10372778625E+04  0.79296243775E+02 0.  0.
        -11    1    3    3    0    0 -0.64251167300E+02 -0.78468955347E+02 -0.21844477481E+03  0.24083959204E+03  0.00000000000E+00 0.  1.
         12    1    3    3    0    0 -0.56366047531E+02 -0.20228370863E+02 -0.27326708406E+03  0.27975206439E+03  0.00000000000E+00 0. -1.
        -11    1    5    5    0    0 -0.15238497513E+03  0.19570969373E+03  0.54073825902E+03  0.59491287566E+03  0.00000000000E+00 0.  1.
         12    1    5    5    0    0 -0.48291936190E+02  0.16607944228E+03  0.40715143293E+03  0.44236498684E+03  0.00000000000E+00 0. -1.
          5    1    4    4  502    0  0.10969383188E+03 -0.84401809607E+02 -0.69717330791E+02  0.15504514965E+03  0.47000000000E+01 0. -1.
         -5    1    4    4    0  502  0.18820232197E+03 -0.16034375682E+03  0.43553862033E+02  0.25109612351E+03  0.47000000000E+01 0. -1.
          1    1    1    2  503    0 -0.14411074404E+02 -0.10401620946E-01  0.32811370398E+03  0.32843002590E+03  0.00000000000E+00 0. -1.
         -2    1    1    2    0  501  0.37809046701E+02 -0.18335841754E+02 -0.28344038242E+03  0.28653826532E+03  0.00000000000E+00 0.  1.
<mgrwt>
<rscale>  0 0.24603254E+02</rscale>
<asrwt>0</asrwt>
<pdfrwt beam="1">  1        2 0.22453432E+00 0.14411078E+02</pdfrwt>
<pdfrwt beam="2">  1       -1 0.15472731E+00 0.42003805E+02</pdfrwt>
<totfact> 0.84033098E+00</totfact>
</mgrwt>
</event>
<event>
13    1  0.1595792E-008  0.9205109E+02  0.7546771E-02  0.1385033E+00
          2   -1    0    0  502    0  0.00000000000E+00  0.00000000000E+00  0.17596031642E+04  0.17596031642E+04  0.00000000000E+00 0. -1.
          2   -1    0    0  503    0 -0.00000000000E+00 -0.00000000000E+00 -0.13853378040E+04  0.13853378040E+04  0.00000000000E+00 0. -1.
         24    2    1    2    0    0 -0.10610540163E+03  0.43038123129E+02 -0.73308590115E+03  0.74633612728E+03  0.80573197311E+02 0.  0.
         25    2    1    2    0    0  0.69503212365E+02  0.34601686185E+02  0.43711593407E+03  0.46122011855E+03  0.12500273885E+03 0.  0.
         24    2    1    2    0    0  0.11336400348E+00 -0.17326350001E+02  0.26848484498E+03  0.28072717900E+03  0.80146252495E+02 0.  0.
        -11    1    3    3    0    0 -0.82688028103E+02  0.37119157777E+02 -0.32121863577E+03  0.33376122278E+03  0.00000000000E+00 0.  1.
         12    1    3    3    0    0 -0.23417373526E+02  0.59189653521E+01 -0.41186726538E+03  0.41257490450E+03  0.00000000000E+00 0. -1.
        -11    1    5    5    0    0  0.28944518531E+01  0.87936784250E+01  0.24593166535E+03  0.24610585253E+03  0.00000000000E+00 0.  1.
         12    1    5    5    0    0 -0.27810878497E+01 -0.26120028426E+02  0.22553179635E+02  0.34621326465E+02  0.00000000000E+00 0. -1.
          5    1    4    4  501    0  0.89324897604E+02  0.29585587235E+02  0.42816956433E+03  0.43841248856E+03  0.47000000000E+01 0. -1.
         -5    1    4    4    0  501 -0.19821685239E+02  0.50160989495E+01  0.89463697425E+01  0.22807629994E+02  0.47000000000E+01 0. -1.
          1    1    1    2  502    0  0.29682061317E+02  0.31574099384E+02  0.10253612899E+04  0.10262766310E+04  0.00000000000E+00 0. -1.
          1    1    1    2  503    0  0.68067639436E+01 -0.91887558698E+02 -0.62361080752E+03  0.63038091241E+03  0.00000000000E+00 0. -1.
<mgrwt>
<rscale>  0 0.63159019E+02</rscale>
<asrwt>0</asrwt>
<pdfrwt beam="1">  1        2 0.25876517E+00 0.43335303E+02</pdfrwt>
<pdfrwt beam="2">  1        2 0.20372615E+00 0.92051085E+02</pdfrwt>
<totfact> 0.37096724E+01</totfact>
</mgrwt>
</event>
<event>
13    1  0.1595792E-008  0.6519286E+02  0.7546771E-02  0.1391476E+00
          2   -1    0    0  502    0  0.00000000000E+00  0.00000000000E+00  0.14473914631E+04  0.14473914631E+04  0.00000000000E+00 0. -1.
          4   -1    0    0  503    0 -0.00000000000E+00 -0.00000000000E+00 -0.53961240570E+03  0.53961240570E+03  0.00000000000E+00 0. -1.
         24    2    1    2    0    0 -0.17433722013E+03 -0.10061894582E+03 -0.30059787912E+03  0.37069833178E+03  0.80873541234E+02 0.  0.
         25    2    1    2    0    0  0.14493939780E+03  0.75402487012E+02  0.39866585067E+03  0.44861144388E+03  0.12499921201E+03 0.  0.
         24    2    1    2    0    0  0.96506243998E-01  0.13132667045E+03  0.42126823812E+03  0.44839411945E+03  0.79647060372E+02 0.  0.
        -11    1    5    5    0    0 -0.27998050581E+02  0.51529447011E+02  0.97700439538E+02  0.11394977241E+03  0.00000000000E+00 0.  1.
         12    1    5    5    0    0  0.28094556825E+02  0.79797223437E+02  0.32356779858E+03  0.33444434705E+03  0.00000000000E+00 0. -1.
        -11    1    3    3    0    0 -0.28524454734E+02 -0.57213742825E+02 -0.10451658094E+03  0.12251845811E+03  0.00000000000E+00 0.  1.
         12    1    3    3    0    0 -0.14581276539E+03 -0.43405202992E+02 -0.19608129818E+03  0.24817987367E+03  0.00000000000E+00 0. -1.
          5    1    4    4  501    0  0.13883173008E+03  0.94734000998E+01  0.26332507530E+03  0.29786940069E+03  0.47000000000E+01 0.  1.
         -5    1    4    4    0  501  0.61076677220E+01  0.65929086912E+02  0.13534077538E+03  0.15074204319E+03  0.47000000000E+01 0.  1.
          1    1    1    2  502    0 -0.10830269815E+02 -0.64106167693E+02  0.54678529497E+03  0.55063695324E+03  0.00000000000E+00 0. -1.
          3    1    1    2  503    0  0.40131585896E+02 -0.42004043950E+02 -0.15834244720E+03  0.16866302049E+03  0.00000000000E+00 0. -1.
<mgrwt>
<rscale>  0 0.61541023E+02</rscale>
<asrwt>0</asrwt>
<pdfrwt beam="1">  1        2 0.21285169E+00 0.65192856E+02</pdfrwt>
<pdfrwt beam="2">  1        4 0.79354766E-01 0.58093751E+02</pdfrwt>
<totfact> 0.12508133E+01</totfact>
</mgrwt>
</event>
<event>
13    1  0.1595792E-008  0.1172235E+03  0.7546771E-02  0.1406474E+00
          2   -1    0    0  503    0  0.00000000000E+00  0.00000000000E+00  0.18797597317E+04  0.18797597317E+04  0.00000000000E+00 0. -1.
          2   -1    0    0  502    0 -0.00000000000E+00 -0.00000000000E+00 -0.19318156883E+04  0.19318156883E+04  0.00000000000E+00 0. -1.
         24    2    1    2    0    0  0.18301399563E+03 -0.26165594090E+02 -0.15323406559E+03  0.25365579889E+03  0.81742428043E+02 0.  0.
         25    2    1    2    0    0 -0.35621290058E+03  0.93018360902E+02  0.15168382306E+03  0.41734091636E+03  0.12500164915E+03 0.  0.
         24    2    1    2    0    0  0.12333209866E+03  0.65042253755E+01 -0.21095561007E+02  0.14845698946E+03  0.79632553135E+02 0.  0.
        -11    1    3    3    0    0  0.65444476594E+02  0.53938037505E+01 -0.11235625591E+02  0.66620656842E+02  0.00000000000E+00 0.  1.
         12    1    3    3    0    0  0.11756951903E+03 -0.31559397840E+02 -0.14199844000E+03  0.18703514205E+03  0.00000000000E+00 0. -1.
        -13    1    5    5    0    0  0.10432882739E+03  0.25863124706E+02 -0.40756253311E+02  0.11495424146E+03  0.00000000000E+00 0.  1.
         14    1    5    5    0    0  0.19003271263E+02 -0.19358899331E+02  0.19660692304E+02  0.33502748005E+02  0.00000000000E+00 0. -1.
          5    1    4    4  501    0 -0.11875813170E+03  0.91575318368E+02  0.42507848067E+02  0.15594402819E+03  0.47000000000E+01 0.  1.
         -5    1    4    4    0  501 -0.23745476887E+03  0.14430425338E+01  0.10917597500E+03  0.26139688818E+03  0.47000000000E+01 0.  1.
          1    1    1    2  502    0  0.66112994077E+02 -0.96998601681E+02 -0.15083463965E+04  0.15129073033E+04  0.00000000000E+00 0. -1.
          1    1    1    2  503    0 -0.16246187786E+02  0.23641609493E+02  0.14789362434E+04  0.14792144119E+04  0.00000000000E+00 0. -1.
<mgrwt>
<rscale>  0 0.57988175E+02</rscale>
<asrwt>0</asrwt>
<pdfrwt beam="1">  1        2 0.27643526E+00 0.28685612E+02</pdfrwt>
<pdfrwt beam="2">  1        2 0.28409054E+00 0.11722352E+03</pdfrwt>
<totfact> 0.18082428E+01</totfact>
</mgrwt>
</event>
<event>
13    1  0.1595792E-008  0.4128218E+02  0.7546771E-02  0.1532733E+00
          2   -1    0    0  502    0  0.00000000000E+00  0.00000000000E+00  0.28706365885E+04  0.28706365885E+04  0.00000000000E+00 0. -1.
          2   -1    0    0  503    0 -0.00000000000E+00 -0.00000000000E+00 -0.30407624172E+04  0.30407624172E+04  0.00000000000E+00 0. -1.
         24    2    1    2    0    0  0.34393562682E+03  0.77793245758E+02 -0.98851133252E+03  0.10527221567E+04  0.82010854181E+02 0.  0.
         25    2    1    2    0    0 -0.30704163757E+03  0.36349133266E+03 -0.97843635628E+03  0.10951468772E+04  0.12493383543E+03 0.  0.
         24    2    1    2    0    0 -0.58158847306E+02 -0.39355135465E+03 -0.25222622496E+03  0.47928176229E+03  0.88474961677E+02 0.  0.
        -11    1    3    3    0    0  0.26956714152E+03  0.85909807104E+02 -0.84118217214E+03  0.88748768187E+03  0.00000000000E+00 0.  1.
         12    1    3    3    0    0  0.74368485299E+02 -0.81165613467E+01 -0.14732916037E+03  0.16523447482E+03  0.00000000000E+00 0. -1.
        -13    1    5    5    0    0 -0.42789426832E+02 -0.11063544850E+03 -0.39662199757E+02  0.12507688676E+03  0.00000000000E+00 0.  1.
         14    1    5    5    0    0 -0.15369420475E+02 -0.28291590615E+03 -0.21256402520E+03  0.35420487553E+03  0.00000000000E+00 0. -1.
          5    1    4    4  501    0 -0.10620520212E+03  0.48413912301E+02 -0.27046126083E+03  0.29460963235E+03  0.47000000000E+01 0. -1.
         -5    1    4    4    0  501 -0.20083643545E+03  0.31507742036E+03 -0.70797509545E+03  0.80053724486E+03  0.47000000000E+01 0. -1.
          1    1    1    2  502    0  0.36790072450E+02 -0.18727318694E+02  0.26660500983E+04  0.26663696946E+04  0.00000000000E+00 0. -1.
          1    1    1    2  503    0 -0.15525214390E+02 -0.29005905075E+02 -0.61700201324E+03  0.61787851488E+03  0.00000000000E+00 0. -1.
<mgrwt>
<rscale>  0 0.36853244E+02</rscale>
<asrwt>0</asrwt>
<pdfrwt beam="1">  1        2 0.42215244E+00 0.41282178E+02</pdfrwt>
<pdfrwt beam="2">  1        2 0.44717094E+00 0.32899465E+02</pdfrwt>
<totfact> 0.20121497E+00</totfact>
</mgrwt>
</event>
<event>
13    1  0.1595792E-008  0.7468549E+02  0.7546771E-02  0.1357074E+00
          2   -1    0    0  502    0  0.00000000000E+00  0.00000000000E+00  0.11979516364E+04  0.11979516364E+04  0.00000000000E+00 0. -1.
          2   -1    0    0  503    0 -0.00000000000E+00 -0.00000000000E+00 -0.19012557018E+04  0.19012557018E+04  0.00000000000E+00 0. -1.
         24    2    1    2    0    0 -0.63949392740E+02 -0.17248646547E+02 -0.28950970862E+03  0.30761491144E+03  0.80149995093E+02 0.  0.
         25    2    1    2    0    0  0.16767903691E+03 -0.18674772231E+01 -0.12773383491E+02  0.20954190039E+03  0.12499960721E+03 0.  0.
         24    2    1    2    0    0 -0.60415462591E+02  0.29585838798E+02 -0.20293509201E+02  0.10636894386E+03  0.79857220870E+02 0.  0.
        -11    1    5    5    0    0 -0.52587978988E+02  0.56023569194E+02 -0.15376258768E+02  0.78361758358E+02  0.00000000000E+00 0.  1.
         12    1    5    5    0    0 -0.78274836038E+01 -0.26437730396E+02 -0.49172504326E+01  0.28007185504E+02  0.00000000000E+00 0. -1.
        -11    1    3    3    0    0 -0.18115599226E+02 -0.41945343565E+02 -0.18872161076E+03  0.19417371900E+03  0.00000000000E+00 0.  1.
         12    1    3    3    0    0 -0.45833793514E+02  0.24696697018E+02 -0.10078809786E+03  0.11344119244E+03  0.00000000000E+00 0. -1.
          5    1    4    4  501    0  0.10364732756E+03  0.11144508079E+02  0.52717300698E+02  0.11691095912E+03  0.47000000000E+01 0.  1.
         -5    1    4    4    0  501  0.64031709356E+02 -0.13011985302E+02 -0.65490684190E+02  0.92630941268E+02  0.47000000000E+01 0.  1.
          1    1    1    2  502    0 -0.17719813882E+02 -0.72710805630E+02  0.10453457712E+04  0.10480212948E+04  0.00000000000E+00 0. -1.
          1    1    1    2  503    0 -0.25594367700E+02  0.62241090601E+02 -0.14260732352E+04  0.14276602877E+04  0.00000000000E+00 0. -1.
<mgrwt>
<rscale>  0 0.70895604E+02</rscale>
<asrwt>0</asrwt>
<pdfrwt beam="1">  1        2 0.17616936E+00 0.74685493E+02</pdfrwt>
<pdfrwt beam="2">  1        2 0.27959642E+00 0.67298031E+02</pdfrwt>
<totfact> 0.38522554E+01</totfact>
</mgrwt>
</event>
<event>
13    1  0.1595792E-008  0.9311866E+02  0.7546771E-02  0.1411484E+00
          2   -1    0    0  502    0  0.00000000000E+00  0.00000000000E+00  0.20915230979E+04  0.20915230979E+04  0.00000000000E+00 0. -1.
          2   -1    0    0  503    0 -0.00000000000E+00 -0.00000000000E+00 -0.14623807561E+04  0.14623807561E+04  0.00000000000E+00 0. -1.
         24    2    1    2    0    0  0.56674768207E+03 -0.52883995815E+03 -0.38471925406E+03  0.86758517083E+03  0.61810094161E+02 0.  0.
         25    2    1    2    0    0 -0.41954039709E+03  0.18878416620E+02  0.25040140208E+03  0.50467405729E+03  0.12499801012E+03 0.  0.
         24    2    1    2    0    0 -0.14233778844E+03  0.57186547684E+03  0.48390644627E+03  0.76679482226E+03  0.80738349583E+02 0.  0.
        -11    1    5    5    0    0 -0.12771839089E+03  0.55100615850E+03  0.47824476430E+03  0.74070090365E+03  0.00000000000E+00 0.  1.
         12    1    5    5    0    0 -0.14619397550E+02  0.20859318331E+02  0.56616819652E+01  0.26093918614E+02  0.00000000000E+00 0. -1.
        -11    1    3    3    0    0  0.38004466046E+03 -0.31664488399E+03 -0.25662883870E+03  0.55727577316E+03  0.00000000000E+00 0.  1.
         12    1    3    3    0    0  0.18670302160E+03 -0.21219507416E+03 -0.12809041536E+03  0.31030939767E+03  0.00000000000E+00 0. -1.
          5    1    4    4  501    0 -0.28071943222E+03  0.51638828401E+02  0.21571993654E+03  0.35780881662E+03  0.47000000000E+01 0. -1.
         -5    1    4    4    0  501 -0.13882096487E+03 -0.32760411781E+02  0.34681465538E+02  0.14686524068E+03  0.47000000000E+01 0. -1.
          1    1    1    2  502    0 -0.25889658998E+02 -0.89543645507E+02  0.84410286393E+03  0.84923376274E+03  0.00000000000E+00 0. -1.
          1    1    1    2  503    0  0.21020162467E+02  0.27639710202E+02 -0.56454911638E+03  0.56561604080E+03  0.00000000000E+00 0. -1.
<mgrwt>
<rscale>  0 0.56863979E+02</rscale>
<asrwt>0</asrwt>
<pdfrwt beam="1">  1        2 0.30757693E+00 0.93118659E+02</pdfrwt>
<pdfrwt beam="2">  1        2 0.21505599E+00 0.34724643E+02</pdfrwt>
<totfact> 0.23617910E+01</totfact>
</mgrwt>
</event>
<event>
13    1  0.1595792E-008  0.2742253E+03  0.7546771E-02  0.1273328E+00
          4   -1    0    0  503    0 -0.00000000000E+00  0.00000000000E+00  0.15096584484E+04  0.15096584484E+04  0.00000000000E+00 0. -1.
          2   -1    0    0  502    0  0.00000000000E+00 -0.00000000000E+00 -0.29991204026E+04  0.29991204026E+04  0.00000000000E+00 0. -1.
         24    2    1    2    0    0  0.39013805257E+02  0.27255163799E+03  0.73846070467E+02  0.29612106591E+03  0.80174629299E+02 0.  0.
         25    2    1    2    0    0  0.27109996031E+03 -0.18335509802E+03 -0.69728907249E+03  0.78035360134E+03  0.12500164821E+03 0.  0.
         24    2    1    2    0    0 -0.45725013944E+02  0.13661281491E+02 -0.10584009475E+03  0.14282267758E+03  0.83179228539E+02 0.  0.
        -11    1    5    5    0    0 -0.22947409232E+02  0.48065678637E+02 -0.47501338174E+02  0.71367150578E+02  0.00000000000E+00 0.  1.
         12    1    5    5    0    0 -0.22777604712E+02 -0.34404397146E+02 -0.58338756578E+02  0.71455526998E+02  0.00000000000E+00 0. -1.
        -13    1    3    3    0    0  0.56929673230E+02  0.23812365771E+03  0.78313406267E+02  0.25705418429E+03  0.00000000000E+00 0.  1.
         14    1    3    3    0    0 -0.17915867973E+02  0.34427980272E+02 -0.44673358001E+01  0.39066881626E+02  0.00000000000E+00 0. -1.
          5    1    4    4  501    0 -0.92618384293E+01 -0.20378633467E+02 -0.24766469263E+02  0.33712584487E+02  0.47000000000E+01 0.  1.
         -5    1    4    4    0  501  0.28036179874E+03 -0.16297646455E+03 -0.67252260323E+03  0.74664101685E+03  0.47000000000E+01 0.  1.
          1    1    1    2  502    0  0.14256604177E+01 -0.38953389891E+02 -0.20098639622E+04  0.20102419122E+04  0.00000000000E+00 0. -1.
          3    1    1    2  503    0 -0.26581441204E+03 -0.63904431568E+02  0.12496851047E+04  0.12792395940E+04  0.00000000000E+00 0. -1.
<mgrwt>
<rscale>  0 0.10338838E+03</rscale>
<asrwt>0</asrwt>
<pdfrwt beam="2">  1        2 0.44104711E+00 0.38979470E+02</pdfrwt>
<pdfrwt beam="1">  1        4 0.22200860E+00 0.27422533E+03</pdfrwt>
<totfact> 0.18609570E-01</totfact>
</mgrwt>
</event>
<event>
13    1  0.1595792E-008  0.1494789E+03  0.7546771E-02  0.1324058E+00
          2   -1    0    0  503    0  0.00000000000E+00  0.00000000000E+00  0.99099220455E+03  0.99099220455E+03  0.00000000000E+00 0. -1.
          2   -1    0    0  502    0 -0.00000000000E+00 -0.00000000000E+00 -0.12404107539E+04  0.12404107539E+04  0.00000000000E+00 0. -1.
         24    2    1    2    0    0 -0.42283680402E+02  0.36522842469E+02 -0.17927748742E+03  0.20534779989E+03  0.83099180329E+02 0.  0.
         25    2    1    2    0    0 -0.46562295997E+02 -0.19175001687E+03 -0.41426824414E+03  0.47558281379E+03  0.12499887317E+03 0.  0.
         24    2    1    2    0    0  0.51879502670E+02  0.37847226904E+02  0.10969346812E+03  0.15104521244E+03  0.81597205052E+02 0.  0.
        -11    1    5    5    0    0 -0.17201900958E+02  0.23045879028E+01  0.50430180698E+02  0.53333100859E+02  0.00000000000E+00 0.  1.
         12    1    5    5    0    0  0.69081403628E+02  0.35542639001E+02  0.59263287423E+02  0.97712111586E+02  0.00000000000E+00 0. -1.
        -11    1    3    3    0    0 -0.29749804262E+02 -0.18983963930E+02 -0.32698230381E+02  0.48110456349E+02  0.00000000000E+00 0.  1.
         12    1    3    3    0    0 -0.12533876140E+02  0.55506806399E+02 -0.14657925704E+03  0.15723734354E+03  0.00000000000E+00 0. -1.
          5    1    4    4  501    0 -0.12960888911E+01 -0.11372855459E+03 -0.11040355018E+03  0.15857773447E+03  0.47000000000E+01 0. -1.
         -5    1    4    4    0  501 -0.45266207106E+02 -0.78021462273E+02 -0.30386469397E+03  0.31700507933E+03  0.47000000000E+01 0. -1.
          1    1    1    2  502    0 -0.16793071128E+02 -0.41478096774E+02 -0.57300797373E+03  0.57475262305E+03  0.00000000000E+00 0. -1.
          1    1    1    2  503    0  0.53759544857E+02  0.15885804427E+03  0.80744168786E+03  0.82467450924E+03  0.00000000000E+00 0. -1.
<mgrwt>
<rscale>  0 0.81786166E+02</rscale>
<asrwt>0</asrwt>
<pdfrwt beam="1">  1        2 0.14573415E+00 0.14947893E+03</pdfrwt>
<pdfrwt beam="2">  1        2 0.18241335E+00 0.44748628E+02</pdfrwt>
<totfact> 0.10379524E+02</totfact>
</mgrwt>
</event>
<event>
13    1  0.1595792E-008  0.2605743E+03  0.7546771E-02  0.1232577E+00
          2   -1    0    0  502    0  0.00000000000E+00  0.00000000000E+00  0.20719936980E+04  0.20719936980E+04  0.00000000000E+00 0. -1.
          4   -1    0    0  503    0 -0.00000000000E+00 -0.00000000000E+00 -0.59733995129E+03  0.59733995129E+03  0.00000000000E+00 0. -1.
         24    2    1    2    0    0  0.10492443082E+03 -0.28124594654E+02  0.12412317269E+03  0.18346109256E+03  0.80319869765E+02 0.  0.
         25    2    1    2    0    0 -0.49288709242E+02  0.32773167032E+03  0.61181699748E+03  0.70695418810E+03  0.12500704413E+03 0.  0.
         24    2    1    2    0    0  0.16769884836E+02 -0.57539523220E+02  0.12008939811E+03  0.15593495587E+03  0.79386530064E+02 0.  0.
        -11    1    3    3    0    0 -0.76655002974E+01  0.81736090546E+01  0.30831049034E+02  0.32804288810E+02  0.00000000000E+00 0.  1.
         12    1    3    3    0    0  0.11258993112E+03 -0.36298203709E+02  0.93292123653E+02  0.15065680375E+03  0.00000000000E+00 0. -1.
        -13    1    5    5    0    0 -0.13897072358E+02 -0.46415714502E+02  0.11243005303E+03  0.12242574892E+03  0.00000000000E+00 0.  1.
         14    1    5    5    0    0  0.30666957194E+02 -0.11123808717E+02  0.76593450758E+01  0.33509206957E+02  0.00000000000E+00 0. -1.
          5    1    4    4  501    0 -0.49305385723E+02  0.18368380950E+03  0.22785919264E+03  0.29683777489E+03  0.47000000000E+01 0.  1.
         -5    1    4    4    0  501  0.16676481065E-01  0.14404786082E+03  0.38395780485E+03  0.41011641321E+03  0.47000000000E+01 0.  1.
          1    1    1    2  502    0 -0.59672145809E+02  0.14950764682E+02  0.10869103045E+04  0.10886497602E+04  0.00000000000E+00 0. -1.
          3    1    1    2  503    0 -0.12733460603E+02 -0.25701831713E+03 -0.46828612607E+03  0.53433365254E+03  0.00000000000E+00 0. -1.
<mgrwt>
<rscale>  0 0.12660823E+03</rscale>
<asrwt>0</asrwt>
<pdfrwt beam="1">  1        2 0.30470495E+00 0.61516586E+02</pdfrwt>
<pdfrwt beam="2">  1        4 0.87844111E-01 0.26057434E+03</pdfrwt>
<totfact> 0.54383215E+00</totfact>
</mgrwt>
</event>
<event>
13    1  0.1595792E-008  0.9896846E+02  0.7546771E-02  0.1367848E+00
          2   -1    0    0  502    0  0.00000000000E+00  0.00000000000E+00  0.16164933577E+04  0.16164933577E+04  0.00000000000E+00 0. -1.
          2   -1    0    0  503    0 -0.00000000000E+00 -0.00000000000E+00 -0.18369695306E+04  0.18369695306E+04  0.00000000000E+00 0. -1.
         24    2    1    2    0    0  0.29697337737E+02 -0.37563828240E+02 -0.56850900126E+03  0.57682781213E+03  0.85058023029E+02 0.  0.
         25    2    1    2    0    0 -0.15240137405E+02 -0.55003079922E+02 -0.88012867405E+02  0.16318773177E+03  0.12500548140E+03 0.  0.
         24    2    1    2    0    0  0.18573353020E+02  0.14271628189E+02  0.25502309030E+02  0.85893827208E+02  0.78604916977E+02 0.  0.
        -11    1    5    5    0    0 -0.30189609279E+01 -0.27411631890E+02 -0.74176884575E+01  0.28557552241E+02  0.00000000000E+00 0.  1.
         12    1    5    5    0    0  0.21592313948E+02  0.41683260079E+02  0.32919997488E+02  0.57336274967E+02  0.00000000000E+00 0. -1.
        -11    1    3    3    0    0 -0.10569477205E+02 -0.52944247833E+02 -0.28631029835E+03  0.29135612945E+03  0.00000000000E+00 0.  1.
         12    1    3    3    0    0  0.40266814943E+02  0.15380419594E+02 -0.28219870290E+03  0.28547168268E+03  0.00000000000E+00 0. -1.
          5    1    4    4  501    0 -0.43147931337E+02 -0.64278491222E+02 -0.10372424845E+03  0.12951555169E+03  0.47000000000E+01 0.  1.
         -5    1    4    4    0  501  0.27907793932E+02  0.92754112997E+01  0.15711381045E+02  0.33672180079E+02  0.47000000000E+01 0.  1.
          1    1    1    2  502    0 -0.76713462463E+02  0.62635151067E+02  0.15169473765E+04  0.15201767860E+04  0.00000000000E+00 0. -1.
          1    1    1    2  503    0  0.43682909110E+02  0.15660128905E+02 -0.11064039898E+04  0.11073767313E+04  0.00000000000E+00 0. -1.
<mgrwt>
<rscale>  0 0.67769052E+02</rscale>
<asrwt>0</asrwt>
<pdfrwt beam="1">  1        2 0.23771961E+00 0.98968462E+02</pdfrwt>
<pdfrwt beam="2">  1        2 0.27014258E+00 0.46405131E+02</pdfrwt>
<totfact> 0.25929398E+01</totfact>
</mgrwt>
</event>
<event>
13    1  0.1595792E-008  0.6178215E+02  0.7546771E-02  0.1396025E+00
          2   -1    0    0  502    0  0.00000000000E+00  0.00000000000E+00  0.32009037526E+04  0.32009037526E+04  0.00000000000E+00 0. -1.
          2   -1    0    0  503    0 -0.00000000000E+00 -0.00000000000E+00 -0.16778842955E+03  0.16778842955E+03  0.00000000000E+00 0. -1.
         24    2    1    2    0    0 -0.19029191098E+02  0.14511733642E+03  0.11060523767E+02  0.16639974443E+03  0.78392527186E+02 0.  0.
         25    2    1    2    0    0 -0.80923951289E+02 -0.18568698243E+03  0.35327681648E+03  0.42598790748E+03  0.12503138373E+03 0.  0.
         24    2    1    2    0    0  0.74011104263E+02  0.88299001652E+02  0.47976570226E+03  0.50011135802E+03  0.81620365801E+02 0.  0.
        -13    1    3    3    0    0  0.18715070230E+02  0.54481263303E+01  0.95657595562E+01  0.21712661977E+02  0.00000000000E+00 0.  1.
         14    1    3    3    0    0 -0.37744261328E+02  0.13966921009E+03  0.14947642110E+01  0.14468708246E+03  0.00000000000E+00 0. -1.
        -13    1    5    5    0    0  0.34248851758E+02 -0.67731621425E+01  0.17335354780E+03  0.17683413728E+03  0.00000000000E+00 0.  1.
         14    1    5    5    0    0  0.39762252505E+02  0.95072163794E+02  0.30641215446E+03  0.32327722075E+03  0.00000000000E+00 0. -1.
          5    1    4    4  501    0 -0.13463057820E+02 -0.13539294435E+03  0.13379256488E+03  0.19087965770E+03  0.47000000000E+01 0.  1.
         -5    1    4    4    0  501 -0.67460893469E+02 -0.50294038080E+02  0.21948425160E+03  0.23510824978E+03  0.47000000000E+01 0.  1.
          1    1    1    2  502    0  0.61899413586E+02 -0.81066014432E+00  0.22119280983E+04  0.22127941853E+04  0.00000000000E+00 0. -1.
          1    1    1    2  503    0 -0.35957375462E+02 -0.46918695496E+02 -0.22915817737E+02  0.63398986898E+02  0.00000000000E+00 0. -1.
<mgrwt>
<rscale>  0 0.60432624E+02</rscale>
<asrwt>0</asrwt>
<pdfrwt beam="1">  1        2 0.47072110E+00 0.61782149E+02</pdfrwt>
<pdfrwt beam="2">  1        2 0.24674771E-01 0.59112578E+02</pdfrwt>
<totfact> 0.78993323E+01</totfact>
</mgrwt>
</event>
<event>
13    1  0.1595792E-008  0.8209706E+02  0.7546771E-02  0.1384263E+00
          2   -1    0    0  503    0  0.00000000000E+00  0.00000000000E+00  0.11992250235E+04  0.11992250235E+04  0.00000000000E+00 0. -1.
         -1   -1    0    0    0  501 -0.00000000000E+00 -0.00000000000E+00 -0.58987301105E+03  0.58987301105E+03  0.00000000000E+00 0.  1.
         24    2    1    2    0    0 -0.31742939781E+02 -0.62575346193E+02 -0.12658263442E+03  0.16703221242E+03  0.83386500530E+02 0.  0.
         25    2    1    2    0    0 -0.31914755893E+02  0.94319045137E+02  0.63464330476E+01  0.15993446775E+03  0.12499649133E+03 0.  0.
         24    2    1    2    0    0  0.45787871053E+02 -0.22433184682E+00  0.10102246202E+03  0.13711631153E+03  0.80614921664E+02 0.  0.
        -11    1    5    5    0    0  0.58903729552E+02  0.23640418035E+02  0.56761724432E+02  0.85149351615E+02  0.00000000000E+00 0.  1.
         12    1    5    5    0    0 -0.13115858499E+02 -0.23864749882E+02  0.44260737583E+02  0.51966959912E+02  0.00000000000E+00 0. -1.
        -13    1    3    3    0    0 -0.52476912985E+02 -0.30612158553E+02 -0.10961603027E+03  0.12532599387E+03  0.00000000000E+00 0.  1.
         14    1    3    3    0    0  0.20733973204E+02 -0.31963187640E+02 -0.16966604152E+02  0.41706218546E+02  0.00000000000E+00 0. -1.
          5    1    4    4  502    0  0.24991411130E+02 -0.14632826122E+01  0.36416411159E+02  0.44440486361E+02  0.47000000000E+01 0. -1.
         -5    1    4    4    0  502 -0.56906167023E+02  0.95782327749E+02 -0.30069978111E+02  0.11549398139E+03  0.47000000000E+01 0. -1.
          1    1    1    2  503    0  0.18167549374E+02 -0.80412165723E+02  0.97332300064E+03  0.97680798513E+03  0.00000000000E+00 0. -1.
         -2    1    1    2    0  501 -0.29772475167E+00  0.48892798626E+02 -0.34475724885E+03  0.34820705770E+03  0.00000000000E+00 0.  1.
<mgrwt>
<rscale>  0 0.63356368E+02</rscale>
<asrwt>0</asrwt>
<pdfrwt beam="1">  1        2 0.17635662E+00 0.82097060E+02</pdfrwt>
<pdfrwt beam="2">  1       -1 0.86746031E-01 0.48893705E+02</pdfrwt>
<totfact> 0.38822856E+01</totfact>
</mgrwt>
</event>
<event>
13    1  0.1595792E-008  0.2435232E+03  0.7546771E-02  0.1230222E+00
          2   -1    0    0  503    0  0.00000000000E+00  0.00000000000E+00  0.22372381657E+04  0.22372381657E+04  0.00000000000E+00 0. -1.
         -3   -1    0    0    0  501 -0.00000000000E+00 -0.00000000000E+00 -0.89701820708E+03  0.89701820708E+03  0.00000000000E+00 0.  1.
         24    2    1    2    0    0  0.94674333639E+02 -0.69807074810E+02 -0.10335768681E+03  0.17775826801E+03  0.84136396877E+02 0.  0.
         25    2    1    2    0    0 -0.56764931237E+02  0.26835990988E+03 -0.57084983532E+02  0.30678857657E+03  0.12498494597E+03 0.  0.
         24    2    1    2    0    0 -0.23869909322E+03 -0.11134002363E+02  0.12601167552E+03  0.28185150003E+03  0.80374763411E+02 0.  0.
        -13    1    5    5    0    0 -0.22150406782E+03 -0.18342398098E+02  0.13613061789E+03  0.26063775774E+03  0.00000000000E+00 0.  1.
         14    1    5    5    0    0 -0.17195025393E+02  0.72083957357E+01 -0.10118942377E+02  0.21213742295E+02  0.00000000000E+00 0. -1.
        -13    1    3    3    0    0  0.19231546360E+01 -0.24463276312E+02 -0.61751150369E+02  0.66448137548E+02  0.00000000000E+00 0.  1.
         14    1    3    3    0    0  0.92751179003E+02 -0.45343798499E+02 -0.41606536439E+02  0.11131013046E+03  0.00000000000E+00 0. -1.
          5    1    4    4  502    0 -0.35899750223E+02  0.26892341495E+03 -0.71961337931E+02  0.28072961962E+03  0.47000000000E+01 0.  1.
         -5    1    4    4    0  502 -0.20865181014E+02 -0.56350507546E+00  0.14876354400E+02  0.26058956943E+02  0.47000000000E+01 0.  1.
          1    1    1    2  503    0  0.21557363925E+03 -0.12161889681E+03  0.18607314557E+04  0.18771213866E+04  0.00000000000E+00 0. -1.
         -4    1    1    2    0  501 -0.14783948439E+02 -0.65799935899E+02 -0.48608050224E+03  0.49073664154E+03  0.00000000000E+00 0.  1.
<mgrwt>
<rscale>  0 0.12815335E+03</rscale>
<asrwt>0</asrwt>
<pdfrwt beam="1">  1        2 0.32900561E+00 0.24352319E+03</pdfrwt>
<pdfrwt beam="2">  1       -3 0.13191444E+00 0.67440320E+02</pdfrwt>
<totfact> 0.18576342E+00</totfact>
</mgrwt>
</event>
<event>
13    1  0.1595792E-008  0.1670384E+03  0.7546771E-02  0.1378748E+00
          2   -1    0    0  503    0  0.00000000000E+00  0.00000000000E+00  0.13740902586E+04  0.13740902586E+04  0.00000000000E+00 0. -1.
          2   -1    0    0  502    0 -0.00000000000E+00 -0.00000000000E+00 -0.25613045254E+04  0.25613045254E+04  0.00000000000E+00 0. -1.
         24    2    1    2    0    0  0.20720853193E+03  0.15545120759E+03 -0.24022243957E+03  0.36315816741E+03  0.84122413407E+02 0.  0.
         25    2    1    2    0    0  0.98664767876E+02  0.46964904212E+03  0.34034587636E+03  0.60146769436E+03  0.12499245027E+03 0.  0.
         24    2    1    2    0    0 -0.26495028195E+03 -0.47349322804E+03  0.53657761650E+03  0.76748045706E+03  0.81952574948E+02 0.  0.
        -11    1    5    5    0    0 -0.53686483531E+02 -0.11313477034E+03  0.17382454530E+03  0.21423512159E+03  0.00000000000E+00 0.  1.
         12    1    5    5    0    0 -0.21126379842E+03 -0.36035845770E+03  0.36275307120E+03  0.55324533548E+03  0.00000000000E+00 0. -1.
        -13    1    3    3    0    0  0.90867051442E+02  0.10588458816E+03 -0.16472250926E+03  0.21587466759E+03  0.00000000000E+00 0.  1.
         14    1    3    3    0    0  0.11634148049E+03  0.49566619423E+02 -0.75499930311E+02  0.14728349982E+03  0.00000000000E+00 0. -1.
          5    1    4    4  501    0  0.30169764905E+02  0.17835302429E+03  0.20372432162E+03  0.27248065107E+03  0.47000000000E+01 0.  1.
         -5    1    4    4    0  501  0.68495002971E+02  0.29129601783E+03  0.13662155474E+03  0.32898704330E+03  0.47000000000E+01 0.  1.
          1    1    1    2  502    0 -0.65985894321E+02 -0.15348952478E+03 -0.20092868082E+04  0.20162208833E+04  0.00000000000E+00 0. -1.
          1    1    1    2  503    0  0.25062876466E+02  0.18825031131E+01  0.18537148811E+03  0.18706758190E+03  0.00000000000E+00 0. -1.
<mgrwt>
<rscale>  0 0.64793953E+02</rscale>
<asrwt>0</asrwt>
<pdfrwt beam="1">  1        2 0.20207210E+00 0.25133476E+02</pdfrwt>
<pdfrwt beam="2">  1        2 0.37666243E+00 0.16703843E+03</pdfrwt>
<totfact> 0.14587125E+01</totfact>
</mgrwt>
</event>
<event>
13    1  0.1595792E-008  0.8975320E+02  0.7546771E-02  0.1447353E+00
          2   -1    0    0  503    0  0.00000000000E+00  0.00000000000E+00  0.47312401865E+04  0.47312401865E+04  0.00000000000E+00 0. -1.
          2   -1    0    0  502    0 -0.00000000000E+00 -0.00000000000E+00 -0.19167206162E+04  0.19167206162E+04  0.00000000000E+00 0. -1.
         24    2    1    2    0    0  0.64263320715E+02 -0.92230942688E+02 -0.68139802933E+03  0.69512486315E+03  0.79113714435E+02 0.  0.
         25    2    1    2    0    0 -0.17114810384E+03  0.42667180817E+03  0.10759582206E+04  0.11767104256E+04  0.12498331123E+03 0.  0.
         24    2    1    2    0    0  0.17131515021E+03 -0.28234413859E+03  0.30299892812E+04  0.30484400414E+04  0.55538710185E+02 0.  0.
        -11    1    5    5    0    0  0.43290107870E+02 -0.12229378888E+03  0.11228311886E+04  0.11303007044E+04  0.00000000000E+00 0.  1.
         12    1    5    5    0    0  0.12802504234E+03 -0.16005034972E+03  0.19071580926E+04  0.19181393370E+04  0.00000000000E+00 0. -1.
        -13    1    3    3    0    0  0.77410515903E+02 -0.53915286224E+02 -0.40947923983E+03  0.42020529972E+03  0.00000000000E+00 0.  1.
         14    1    3    3    0    0 -0.13147195189E+02 -0.38315656464E+02 -0.27191878951E+03  0.27491956343E+03  0.00000000000E+00 0. -1.
          5    1    4    4  501    0 -0.13841819605E+03  0.40070709541E+03  0.10329258891E+04  0.11165499343E+04  0.47000000000E+01 0.  1.
         -5    1    4    4    0  501 -0.32729907786E+02  0.25964712764E+02  0.43032331439E+02  0.60160491369E+02  0.47000000000E+01 0.  1.
          1    1    1    2  502    0 -0.83659943899E+02 -0.32518519785E+02 -0.11667960997E+04  0.11702433844E+04  0.00000000000E+00 0. -1.
          1    1    1    2  503    0  0.19229576812E+02 -0.19578207106E+02  0.55676619765E+03  0.55744208817E+03  0.00000000000E+00 0. -1.
<mgrwt>
<rscale>  0 0.49629016E+02</rscale>
<asrwt>0</asrwt>
<pdfrwt beam="1">  1        2 0.69577061E+00 0.27442354E+02</pdfrwt>
<pdfrwt beam="2">  1        2 0.28187068E+00 0.89753204E+02</pdfrwt>
<totfact> 0.46575194E-01</totfact>
</mgrwt>
</event>
<event>
13    1  0.1595792E-008  0.2906831E+02  0.7546771E-02  0.1654400E+00
          2   -1    0    0  502    0  0.00000000000E+00  0.00000000000E+00  0.36406311754E+04  0.36406311754E+04  0.00000000000E+00 0. -1.
          4   -1    0    0  503    0 -0.00000000000E+00 -0.00000000000E+00 -0.40952585861E+03  0.40952585861E+03  0.00000000000E+00 0. -1.
         24    2    1    2    0    0 -0.22197167559E+02 -0.73843071299E+02 -0.10882497505E+03  0.16095515965E+03  0.90100914523E+02 0.  0.
         25    2    1    2    0    0 -0.74622563190E+02  0.16575525839E+02 -0.63349133063E+02  0.15961495467E+03  0.12498218314E+03 0.  0.
         24    2    1    2    0    0  0.93823570186E+02  0.63383471422E+02  0.12879163882E+04  0.12952783675E+04  0.78721658782E+02 0.  0.
        -11    1    3    3    0    0 -0.51271667065E+02 -0.22681846013E+02 -0.73063873261E+02  0.92095491519E+02  0.00000000000E+00 0.  1.
         12    1    3    3    0    0  0.29074499506E+02 -0.51161225286E+02 -0.35761101786E+02  0.68859668132E+02  0.00000000000E+00 0. -1.
        -11    1    5    5    0    0  0.72149131596E+02  0.11654862962E+02  0.49322701576E+03  0.49861229637E+03  0.00000000000E+00 0.  1.
         12    1    5    5    0    0  0.21674438590E+02  0.51728608460E+02  0.79468937245E+03  0.79666607114E+03  0.00000000000E+00 0. -1.
          5    1    4    4  501    0  0.17827126638E+02 -0.35260136598E+02 -0.23951519777E+02  0.46441888169E+02  0.47000000000E+01 0.  1.
         -5    1    4    4    0  501 -0.92449689827E+02  0.51835662437E+02 -0.39397613286E+02  0.11317306650E+03  0.47000000000E+01 0.  1.
          1    1    1    2  502    0 -0.11911938000E+02  0.18863546406E+02  0.22734540090E+04  0.22735634714E+04  0.00000000000E+00 0. -1.
          3    1    1    2  503    0  0.14908098562E+02 -0.24979472368E+02 -0.15809097233E+03  0.16074508071E+03  0.00000000000E+00 0. -1.
<mgrwt>
<rscale>  0 0.25465828E+02</rscale>
<asrwt>0</asrwt>
<pdfrwt beam="1">  1        2 0.53538692E+00 0.22309811E+02</pdfrwt>
<pdfrwt beam="2">  1        4 0.60224393E-01 0.29068305E+02</pdfrwt>
<totfact> 0.20207654E+00</totfact>
</mgrwt>
</event>
<event>
13    1  0.1595792E-008  0.2014628E+02  0.7546771E-02  0.1809467E+00
          2   -1    0    0  503    0  0.00000000000E+00  0.00000000000E+00  0.16756508431E+04  0.16756508431E+04  0.00000000000E+00 0. -1.
         -3   -1    0    0    0  501 -0.00000000000E+00 -0.00000000000E+00 -0.11574023269E+04  0.11574023269E+04  0.00000000000E+00 0.  1.
         24    2    1    2    0    0 -0.30962283392E+02 -0.96569486676E+02 -0.12425723456E+03  0.18029157981E+03  0.82346005734E+02 0.  0.
         25    2    1    2    0    0  0.47813038311E+03 -0.15237384154E+02 -0.36500131549E+03  0.61456105909E+03  0.12497397295E+03 0.  0.
         24    2    1    2    0    0 -0.43546304240E+03  0.99859190873E+02  0.12584594538E+04  0.13384424537E+04  0.90044909924E+02 0.  0.
        -13    1    3    3    0    0 -0.28818908989E+02 -0.57904552904E+01 -0.66415269504E+02  0.72629518180E+02  0.00000000000E+00 0.  1.
         14    1    3    3    0    0 -0.21433744027E+01 -0.90779031386E+02 -0.57841965061E+02  0.10766206163E+03  0.00000000000E+00 0. -1.
        -13    1    5    5    0    0 -0.19898892318E+03  0.63355543957E+02  0.70968140311E+03  0.73976902505E+03  0.00000000000E+00 0.  1.
         14    1    5    5    0    0 -0.23647411921E+03  0.36503646916E+02  0.54877805070E+03  0.59867342870E+03  0.00000000000E+00 0. -1.
          5    1    4    4  502    0  0.27080783193E+03  0.44974729885E+02 -0.16556834633E+03  0.32061593140E+03  0.47000000000E+01 0. -1.
         -5    1    4    4    0  502  0.20732255118E+03 -0.60212114039E+02 -0.19943296916E+03  0.29394512769E+03  0.47000000000E+01 0. -1.
          1    1    1    2  503    0  0.31525760497E+00  0.20149372721E+02  0.22383872757E+03  0.22474401564E+03  0.00000000000E+00 0. -1.
         -4    1    1    2    0  501 -0.12020314927E+02 -0.82016927644E+01 -0.47479111519E+03  0.47501406168E+03  0.00000000000E+00 0.  1.
<mgrwt>
<rscale>  0 0.17122067E+02</rscale>
<asrwt>0</asrwt>
<pdfrwt beam="1">  1        2 0.24641924E+00 0.20146277E+02</pdfrwt>
<pdfrwt beam="2">  1       -3 0.17020622E+00 0.14551829E+02</pdfrwt>
<totfact> 0.23481976E+00</totfact>
</mgrwt>
</event>
<event>
13    1  0.1595792E-008  0.2267125E+03  0.7546771E-02  0.1302538E+00
          2   -1    0    0  503    0  0.00000000000E+00  0.00000000000E+00  0.98267481411E+03  0.98267481411E+03  0.00000000000E+00 0. -1.
          2   -1    0    0  502    0 -0.00000000000E+00 -0.00000000000E+00 -0.27547904915E+04  0.27547904915E+04  0.00000000000E+00 0. -1.
         24    2    1    2    0    0 -0.36758891778E+03  0.37331559983E+03 -0.61798613167E+03  0.81426671209E+03  0.81469441738E+02 0.  0.
         25    2    1    2    0    0  0.59058451173E+03 -0.25810255438E+03 -0.28036478134E+03  0.71388696896E+03  0.12499279890E+03 0.  0.
         24    2    1    2    0    0 -0.34742381740E+03 -0.26134833949E+03  0.25328739313E+03  0.50731574924E+03  0.64872971694E+02 0.  0.
        -11    1    3    3    0    0 -0.19380665495E+03  0.17791715606E+03 -0.36905739912E+03  0.45323161603E+03  0.00000000000E+00 0.  1.
         12    1    3    3    0    0 -0.17378226283E+03  0.19539844377E+03 -0.24892873255E+03  0.36103509606E+03  0.00000000000E+00 0. -1.
        -11    1    5    5    0    0 -0.27266980631E+03 -0.17487589781E+03  0.20417046982E+03  0.38290466654E+03  0.00000000000E+00 0.  1.
         12    1    5    5    0    0 -0.74754011085E+02 -0.86472441675E+02  0.49116923308E+02  0.12441108270E+03  0.00000000000E+00 0. -1.
          5    1    4    4  501    0  0.59605149200E+03 -0.25254580140E+03 -0.27761302602E+03  0.70437762964E+03  0.47000000000E+01 0. -1.
         -5    1    4    4    0  501 -0.54669802778E+01 -0.55567529774E+01 -0.27517553158E+01  0.95093393214E+01  0.47000000000E+01 0. -1.
          1    1    1    2  502    0  0.15257744798E+03  0.16830479844E+03 -0.14042426412E+04  0.14224991312E+04  0.00000000000E+00 0. -1.
          1    1    1    2  503    0 -0.28149224534E+02 -0.22169504404E+02  0.27719048367E+03  0.27949674417E+03  0.00000000000E+00 0. -1.
<mgrwt>
<rscale>  0 0.90129640E+02</rscale>
<asrwt>0</asrwt>
<pdfrwt beam="1">  1        2 0.14451101E+00 0.35831073E+02</pdfrwt>
<pdfrwt beam="2">  1        2 0.40511624E+00 0.22671250E+03</pdfrwt>
<totfact> 0.17111454E+01</totfact>
</mgrwt>
</event>
<event>
13    1  0.1595792E-008  0.1067018E+03  0.7546771E-02  0.1430248E+00
          2   -1    0    0  503    0  0.00000000000E+00  0.00000000000E+00  0.10884252446E+04  0.10884252446E+04  0.00000000000E+00 0. -1.
          2   -1    0    0  502    0 -0.00000000000E+00 -0.00000000000E+00 -0.32714734962E+04  0.32714734962E+04  0.00000000000E+00 0. -1.
         24    2    1    2    0    0 -0.24971384676E+03 -0.36530682823E+02 -0.19557365577E+04  0.19736080025E+04  0.80818118142E+02 0.  0.
         25    2    1    2    0    0  0.26252653284E+03  0.15559438447E+03 -0.10591483224E+03  0.34636641687E+03  0.12498779991E+03 0.  0.
         24    2    1    2    0    0 -0.81131126504E+02 -0.74511716677E+02  0.95639020386E+02  0.16602959566E+03  0.79276407617E+02 0.  0.
        -13    1    5    5    0    0 -0.92369763260E+02 -0.78702873196E+02  0.76531120482E+02  0.14346890888E+03  0.00000000000E+00 0.  1.
         14    1    5    5    0    0  0.11238636756E+02  0.41911565191E+01  0.19107899904E+02  0.22560686776E+02  0.00000000000E+00 0. -1.
        -13    1    3    3    0    0 -0.60865839032E+02 -0.40902355218E+01 -0.25905038131E+03  0.26613620656E+03  0.00000000000E+00 0.  1.
         14    1    3    3    0    0 -0.18884800772E+03 -0.32440447301E+02 -0.16966861764E+04  0.17074717959E+04  0.00000000000E+00 0. -1.
          5    1    4    4  501    0  0.10567506312E+03 -0.34495358795E+01 -0.43124116974E+02  0.11428428469E+03  0.47000000000E+01 0.  1.
         -5    1    4    4    0  501  0.15685146972E+03  0.15904392035E+03 -0.62790715269E+02  0.23208213218E+03  0.47000000000E+01 0.  1.
          1    1    1    2  502    0 -0.16208718396E+02  0.20630912836E+02 -0.10418611409E+04  0.10421914383E+04  0.00000000000E+00 0. -1.
          1    1    1    2  503    0  0.84527158820E+02 -0.65182897806E+02  0.82482525889E+03  0.83170328751E+03  0.00000000000E+00 0. -1.
<mgrwt>
<rscale>  0 0.52910194E+02</rscale>
<asrwt>0</asrwt>
<pdfrwt beam="1">  1        2 0.16006254E+00 0.10670181E+03</pdfrwt>
<pdfrwt beam="2">  1        2 0.48109903E+00 0.26236561E+02</pdfrwt>
<totfact> 0.10705678E+01</totfact>
</mgrwt>
</event>
<event>
13    1  0.1595792E-008  0.1658488E+03  0.7546771E-02  0.1325614E+00
          2   -1    0    0  503    0  0.00000000000E+00  0.00000000000E+00  0.20976281164E+04  0.20976281164E+04  0.00000000000E+00 0. -1.
          2   -1    0    0  502    0 -0.00000000000E+00 -0.00000000000E+00 -0.18558006566E+04  0.18558006566E+04  0.00000000000E+00 0. -1.
         24    2    1    2    0    0  0.97132498170E+03 -0.41648378695E+02 -0.56786994866E+03  0.11280202626E+04  0.68895766645E+02 0.  0.
         25    2    1    2    0    0 -0.11914940984E+04 -0.13184664954E+03  0.85764128453E+03  0.14792617263E+04  0.12499982533E+03 0.  0.
         24    2    1    2    0    0  0.42384126805E+02  0.22281806762E+03  0.13666403993E+03  0.27587054413E+03  0.77351094634E+02 0.  0.
        -13    1    5    5    0    0 -0.18442831106E+02  0.92567160525E+02  0.39265755012E+02  0.10222825805E+03  0.00000000000E+00 0.  1.
         14    1    5    5    0    0  0.60826957912E+02  0.13025090710E+03  0.97398284923E+02  0.17364228608E+03  0.00000000000E+00 0. -1.
        -13    1    3    3    0    0  0.61135564270E+02  0.67341229662E+00 -0.56024290032E+02  0.82926062106E+02  0.00000000000E+00 0.  1.
         14    1    3    3    0    0  0.91018941743E+03 -0.42321790991E+02 -0.51184565862E+03  0.10450942005E+04  0.00000000000E+00 0. -1.
          5    1    4    4  501    0 -0.17018018476E+03  0.14403561484E+02  0.15764101960E+03  0.23246836114E+03  0.47000000000E+01 0.  1.
         -5    1    4    4    0  501 -0.10213139136E+04 -0.14625021102E+03  0.70000026493E+03  0.12467933651E+04  0.47000000000E+01 0.  1.
          1    1    1    2  502    0  0.16534759497E+03 -0.11538569538E+02 -0.61556367254E+03  0.63748851025E+03  0.00000000000E+00 0. -1.
          1    1    1    2  503    0  0.12437394919E+02 -0.37784469855E+02  0.43095575654E+03  0.43278772979E+03  0.00000000000E+00 0. -1.
<mgrwt>
<rscale>  0 0.81223595E+02</rscale>
<asrwt>0</asrwt>
<pdfrwt beam="1">  1        2 0.30847472E+00 0.39778825E+02</pdfrwt>
<pdfrwt beam="2">  1        2 0.27291186E+00 0.16584885E+03</pdfrwt>
<totfact> 0.14599087E+01</totfact>
</mgrwt>
</event>
<event>
13    1  0.1595792E-008  0.8111876E+02  0.7546771E-02  0.1456856E+00
          2   -1    0    0  503    0  0.00000000000E+00  0.00000000000E+00  0.73558616695E+03  0.73558616695E+03  0.00000000000E+00 0. -1.
          2   -1    0    0  502    0 -0.00000000000E+00 -0.00000000000E+00 -0.20518705689E+04  0.20518705689E+04  0.00000000000E+00 0. -1.
         24    2    1    2    0    0 -0.11486756634E+03 -0.30028844103E+02 -0.14119074182E+04  0.14193145490E+04  0.82915271125E+02 0.  0.
         25    2    1    2    0    0  0.12090400836E+03  0.31141359995E+02  0.14337810005E+01  0.17667481358E+03  0.12499748191E+03 0.  0.
         24    2    1    2    0    0  0.24764530828E+02 -0.52054328009E+02  0.35502249184E+02  0.10452069461E+03  0.79631845717E+02 0.  0.
        -11    1    3    3    0    0 -0.37277052222E+02 -0.10911893996E+02 -0.15230014494E+03  0.15717500502E+03  0.00000000000E+00 0.  1.
         12    1    3    3    0    0 -0.77590514113E+02 -0.19116950106E+02 -0.12596072732E+04  0.12621395440E+04  0.00000000000E+00 0. -1.
        -13    1    5    5    0    0  0.45503004682E+02 -0.45363262229E+02  0.47258691900E+02  0.79760472386E+02  0.00000000000E+00 0.  1.
         14    1    5    5    0    0 -0.20738473854E+02 -0.66910657809E+01 -0.11756442716E+02  0.24760222221E+02  0.00000000000E+00 0. -1.
          5    1    4    4  501    0  0.14547977629E+03  0.23920491953E+02  0.13200579863E+02  0.14809760482E+03  0.47000000000E+01 0. -1.
         -5    1    4    4    0  501 -0.24575767933E+02  0.72208680420E+01 -0.11766798862E+02  0.28577208755E+02  0.47000000000E+01 0. -1.
          1    1    1    2  502    0 -0.58487141535E+02  0.56882097679E+02 -0.51053900573E+03  0.51701682287E+03  0.00000000000E+00 0. -1.
          1    1    1    2  503    0  0.27686168684E+02 -0.59402855619E+01  0.56922599173E+03  0.56992985585E+03  0.00000000000E+00 0. -1.
<mgrwt>
<rscale>  0 0.47926822E+02</rscale>
<asrwt>0</asrwt>
<pdfrwt beam="1">  1        2 0.10817444E+00 0.28316266E+02</pdfrwt>
<pdfrwt beam="2">  1        2 0.30174567E+00 0.81118757E+02</pdfrwt>
<totfact> 0.61549912E+01</totfact>
</mgrwt>
</event>
<event>
13    1  0.1595792E-008  0.1205062E+03  0.7546771E-02  0.1272734E+00
          2   -1    0    0  503    0  0.00000000000E+00  0.00000000000E+00  0.88721822216E+03  0.88721822216E+03  0.00000000000E+00 0. -1.
          2   -1    0    0  502    0 -0.00000000000E+00 -0.00000000000E+00 -0.12053971039E+04  0.12053971039E+04  0.00000000000E+00 0. -1.
         24    2    1    2    0    0 -0.29250208083E+02 -0.42449460468E+02 -0.94286908424E+02  0.13453284900E+03  0.80941552946E+02 0.  0.
         25    2    1    2    0    0 -0.15245374411E+03 -0.18978659972E+02 -0.13280717102E+03  0.23845677993E+03  0.12498622963E+03 0.  0.
         24    2    1    2    0    0 -0.82973761437E+02  0.10349580367E+03  0.25676762196E+03  0.29966750090E+03  0.79214726826E+02 0.  0.
        -13    1    5    5    0    0 -0.13648637986E+02  0.94680493257E+01  0.11396290603E+03  0.11516715342E+03  0.00000000000E+00 0.  1.
         14    1    5    5    0    0 -0.69325123451E+02  0.94027754340E+02  0.14280471593E+03  0.18450034748E+03  0.00000000000E+00 0. -1.
        -13    1    3    3    0    0  0.24183028654E+02 -0.33632657552E+02 -0.34957128089E+02  0.54203093391E+02  0.00000000000E+00 0.  1.
         14    1    3    3    0    0 -0.53433236737E+02 -0.88168029164E+01 -0.59329780335E+02  0.80329755611E+02  0.00000000000E+00 0. -1.
          5    1    4    4  501    0 -0.10802338439E+03  0.13721621106E+02 -0.17288802916E+02  0.11035545825E+03  0.47000000000E+01 0.  1.
         -5    1    4    4    0  501 -0.44430359719E+02 -0.32700281078E+02 -0.11551836810E+03  0.12810132168E+03  0.47000000000E+01 0.  1.
          1    1    1    2  502    0  0.10545101722E+03  0.45026511985E+02 -0.86464969871E+03  0.87221924153E+03  0.00000000000E+00 0. -1.
          1    1    1    2  503    0  0.15922669641E+03 -0.87094195210E+02  0.51679727442E+03  0.54773895474E+03  0.00000000000E+00 0. -1.
<mgrwt>
<rscale>  0 0.10368423E+03</rscale>
<asrwt>0</asrwt>
<pdfrwt beam="1">  1        2 0.13047327E+00 0.12050624E+03</pdfrwt>
<pdfrwt beam="2">  1        2 0.17726428E+00 0.89210482E+02</pdfrwt>
<totfact> 0.12071501E+02</totfact>
</mgrwt>
</event>
<event>
13    1  0.1595792E-008  0.1469961E+03  0.7546771E-02  0.1400975E+00
         -1   -1    0    0    0  501  0.00000000000E+00  0.00000000000E+00  0.68464105222E+03  0.68464105222E+03  0.00000000000E+00 0.  1.
         -3   -1    0    0    0  502 -0.00000000000E+00 -0.00000000000E+00 -0.53672439112E+03  0.53672439112E+03  0.00000000000E+00 0.  1.
         24    2    1    2    0    0  0.30499565658E+03  0.77766786189E+02  0.18216752286E+02  0.32542794715E+03  0.80631725488E+02 0.  0.
         25    2    1    2    0    0 -0.21371406505E+03 -0.23113143974E+03  0.21456069137E+03  0.40094632228E+03  0.12500487602E+03 0.  0.
         24    2    1    2    0    0 -0.20199798479E+02  0.45924527783E+02  0.10381091041E+03  0.15969169649E+03  0.11048818352E+03 0.  0.
        -11    1    3    3    0    0  0.12126201268E+03  0.35270685959E+02 -0.31987771769E+02  0.13027553319E+03  0.00000000000E+00 0.  1.
         12    1    3    3    0    0  0.18373364391E+03  0.42496100231E+02  0.50204524055E+02  0.19515241396E+03  0.00000000000E+00 0. -1.
        -13    1    5    5    0    0 -0.42277318573E+02 -0.13078742241E+02  0.81718401643E+02  0.92931815496E+02  0.00000000000E+00 0.  1.
         14    1    5    5    0    0  0.22077520093E+02  0.59003270024E+02  0.22092508769E+02  0.66759880997E+02  0.00000000000E+00 0. -1.
          5    1    4    4  503    0  0.18768285062E+01 -0.63523217837E+02  0.57823156108E+02  0.86048411211E+02  0.47000000000E+01 0. -1.
         -5    1    4    4    0  503 -0.21559089356E+03 -0.16760822191E+03  0.15673753527E+03  0.31489791107E+03  0.47000000000E+01 0. -1.
         -2    1    1    2    0  501 -0.63071187170E+01 -0.23040357558E+02  0.50153836220E+02  0.55552183670E+02  0.00000000000E+00 0.  1.
         -4    1    1    2    0  502 -0.64774674337E+02  0.13048048333E+03 -0.23882552919E+03  0.27974729374E+03  0.00000000000E+00 0.  1.
<mgrwt>
<rscale>  0 0.59257455E+02</rscale>
<asrwt>0</asrwt>
<pdfrwt beam="1">  1       -1 0.10068251E+00 0.23888027E+02</pdfrwt>
<pdfrwt beam="2">  1       -3 0.78930057E-01 0.14699606E+03</pdfrwt>
<totfact> 0.76718954E+00</totfact>
</mgrwt>
</event>
<event>
13    1  0.1595792E-008  0.4666537E+02  0.7546771E-02  0.1653116E+00
          2   -1    0    0  502    0  0.00000000000E+00  0.00000000000E+00  0.24454566489E+04  0.24454566489E+04  0.00000000000E+00 0. -1.
          2   -1    0    0  503    0 -0.00000000000E+00 -0.00000000000E+00 -0.30107316967E+04  0.30107316967E+04  0.00000000000E+00 0. -1.
         24    2    1    2    0    0  0.28485756921E+03 -0.23376449446E+03 -0.91484703014E+02  0.38744051200E+03  0.77142892359E+02 0.  0.
         25    2    1    2    0    0 -0.66555667042E+03  0.16330151060E+02  0.94822035562E+02  0.68399632061E+03  0.12500957089E+03 0.  0.
         24    2    1    2    0    0  0.33019070095E+03  0.24477635119E+03  0.13028261659E+04  0.13681473480E+04  0.74362531117E+02 0.  0.
        -11    1    3    3    0    0  0.16854403578E+03 -0.17664575556E+03 -0.81823278462E+02  0.25749925020E+03  0.00000000000E+00 0.  1.
         12    1    3    3    0    0  0.11631353343E+03 -0.57118738903E+02 -0.96614245529E+01  0.12994126180E+03  0.00000000000E+00 0. -1.
        -11    1    5    5    0    0  0.17077132359E+03  0.11816788920E+03  0.77743735360E+03  0.80469580201E+03  0.00000000000E+00 0.  1.
         12    1    5    5    0    0  0.15941937736E+03  0.12660846199E+03  0.52538881231E+03  0.56345154594E+03  0.00000000000E+00 0. -1.
          5    1    4    4  501    0 -0.11337544489E+03  0.45196630823E+02  0.39062355715E+02  0.12823683003E+03  0.47000000000E+01 0.  1.
         -5    1    4    4    0  501 -0.55218122553E+03 -0.28866479763E+02  0.55759679847E+02  0.55575949059E+03  0.47000000000E+01 0.  1.
          1    1    1    2  502    0  0.13905633866E+02  0.16024915796E+01  0.57227447753E+03  0.57244564132E+03  0.00000000000E+00 0. -1.
          1    1    1    2  503    0  0.36602766386E+02 -0.28944499369E+02 -0.24437130238E+04  0.24441585237E+04  0.00000000000E+00 0. -1.
<mgrwt>
<rscale>  0 0.25557899E+02</rscale>
<asrwt>0</asrwt>
<pdfrwt beam="1">  1        2 0.35962598E+00 0.13997665E+02</pdfrwt>
<pdfrwt beam="2">  1        2 0.44275466E+00 0.46665368E+02</pdfrwt>
<totfact> 0.37269989E+00</totfact>
</mgrwt>
</event>
<event>
13    1  0.1595792E-008  0.9948667E+02  0.7546771E-02  0.1281693E+00
          2   -1    0    0  502    0  0.00000000000E+00  0.00000000000E+00  0.12950826046E+04  0.12950826046E+04  0.00000000000E+00 0. -1.
          4   -1    0    0  503    0 -0.00000000000E+00 -0.00000000000E+00 -0.73603949840E+03  0.73603949840E+03  0.00000000000E+00 0. -1.
         24    2    1    2    0    0 -0.69246103582E+01 -0.88997955092E+02 -0.35305285017E+03  0.37274895118E+03  0.79541683152E+02 0.  0.
         25    2    1    2    0    0 -0.84131706748E+02  0.33137467823E+02  0.80543471198E+02  0.17403471432E+03  0.12499838072E+03 0.  0.
         24    2    1    2    0    0  0.55945068141E+02 -0.55069625144E+02  0.63222754660E+03  0.64205165730E+03  0.79725439474E+02 0.  0.
        -11    1    3    3    0    0 -0.11115913658E+02  0.11630670583E+02 -0.26342202723E+02  0.30866611070E+02  0.00000000000E+00 0.  1.
         12    1    3    3    0    0  0.41913032999E+01 -0.10062862568E+03 -0.32671064744E+03  0.34188234011E+03  0.00000000000E+00 0. -1.
        -11    1    5    5    0    0  0.25441005586E+02  0.47263887451E+01  0.38513326022E+03  0.38600156949E+03  0.00000000000E+00 0.  1.
         12    1    5    5    0    0  0.30504062554E+02 -0.59796013889E+02  0.24709428637E+03  0.25605008781E+03  0.00000000000E+00 0. -1.
          5    1    4    4  501    0 -0.83444501890E+02 -0.29084591062E+02  0.64785052401E+02  0.10967265542E+03  0.47000000000E+01 0. -1.
         -5    1    4    4    0  501 -0.68720485747E+00  0.62222058884E+02  0.15758418797E+02  0.64362058896E+02  0.47000000000E+01 0. -1.
          1    1    1    2  502    0 -0.59063078464E+02  0.79688829327E+02  0.50823972217E+03  0.51782851597E+03  0.00000000000E+00 0. -1.
          3    1    1    2  503    0  0.94174327429E+02  0.31241283087E+02 -0.30891478359E+03  0.32445826424E+03  0.00000000000E+00 0. -1.
<mgrwt>
<rscale>  0 0.99338477E+02</rscale>
<asrwt>0</asrwt>
<pdfrwt beam="1">  1        2 0.19045333E+00 0.99190507E+02</pdfrwt>
<pdfrwt beam="2">  1        4 0.10824110E+00 0.99486667E+02</pdfrwt>
<totfact> 0.74329242E+00</totfact>
</mgrwt>
</event>
<event>
13    1  0.1595792E-008  0.1232286E+03  0.7546771E-02  0.1307326E+00
          2   -1    0    0  503    0  0.00000000000E+00  0.00000000000E+00  0.25666200221E+04  0.25666200221E+04  0.00000000000E+00 0. -1.
         -1   -1    0    0    0  501 -0.00000000000E+00 -0.00000000000E+00 -0.90071306917E+03  0.90071306917E+03  0.00000000000E+00 0.  1.
         24    2    1    2    0    0 -0.11716026850E+03 -0.13649575432E+02 -0.12272323622E+03  0.18755888893E+03  0.78768678319E+02 0.  0.
         25    2    1    2    0    0  0.19937699133E+03  0.59823619981E+02  0.88313466466E+03  0.91590534646E+03  0.12500287024E+03 0.  0.
         24    2    1    2    0    0 -0.11331155516E+03  0.27339970003E+02  0.35306549741E+03  0.38060726575E+03  0.81361310139E+02 0.  0.
        -13    1    3    3    0    0 -0.25688857928E+02  0.77267000991E+01 -0.79973598967E+02  0.84352805809E+02  0.00000000000E+00 0.  1.
         14    1    3    3    0    0 -0.91471410576E+02 -0.21376275531E+02 -0.42749637249E+02  0.10320608312E+03  0.00000000000E+00 0. -1.
        -13    1    5    5    0    0 -0.75458669268E+01 -0.49548683530E+01 -0.15405106250E+01  0.91577290340E+01  0.00000000000E+00 0.  1.
         14    1    5    5    0    0 -0.10576568824E+03  0.32294838356E+02  0.35460600803E+03  0.37144953671E+03  0.00000000000E+00 0. -1.
          5    1    4    4  502    0  0.14168925208E+03 -0.87848851675E+01  0.39920196769E+03  0.42371844351E+03  0.47000000000E+01 0. -1.
         -5    1    4    4    0  502  0.57687739250E+02  0.68608505148E+02  0.48393269697E+03  0.49218690295E+03  0.47000000000E+01 0. -1.
          1    1    1    2  503    0  0.38897423768E+02  0.49680332309E+02  0.12617268182E+04  0.12633034904E+04  0.00000000000E+00 0. -1.
         -2    1    1    2    0  501 -0.78025914323E+01 -0.12319434686E+03 -0.70929679112E+03  0.71995809977E+03  0.00000000000E+00 0.  1.
<mgrwt>
<rscale>  0 0.88177480E+02</rscale>
<asrwt>0</asrwt>
<pdfrwt beam="1">  1        2 0.37744412E+00 0.63096315E+02</pdfrwt>
<pdfrwt beam="2">  1       -1 0.13245780E+00 0.12322856E+03</pdfrwt>
<totfact> 0.32385415E+00</totfact>
</mgrwt>
</event>
<event>
13    1  0.1595792E-008  0.8293825E+02  0.7546771E-02  0.1556232E+00
          2   -1    0    0  503    0  0.00000000000E+00  0.00000000000E+00  0.13804008426E+04  0.13804008426E+04  0.00000000000E+00 0. -1.
          2   -1    0    0  502    0 -0.00000000000E+00 -0.00000000000E+00 -0.27567297150E+04  0.27567297150E+04  0.00000000000E+00 0. -1.
         24    2    1    2    0    0  0.89655136140E+02 -0.25553943236E+01 -0.10999867354E+04  0.11066234270E+04  0.81240492659E+02 0.  0.
         25    2    1    2    0    0 -0.51360933288E+02  0.12587552254E+03  0.21003701938E+03  0.27967857054E+03  0.12498784207E+03 0.  0.
         24    2    1    2    0    0 -0.71129695394E+02 -0.34484897546E+02  0.14689958720E+03  0.18490120190E+03  0.79751639608E+02 0.  0.
        -11    1    5    5    0    0 -0.22467614101E+02 -0.16563379259E+01 -0.40951283042E+01  0.22897755667E+02  0.00000000000E+00 0.  1.
         12    1    5    5    0    0 -0.48662081292E+02 -0.32828559620E+02  0.15099471550E+03  0.16200344624E+03  0.00000000000E+00 0. -1.
        -13    1    3    3    0    0  0.48057023432E+02  0.31483403528E+02 -0.34728783163E+03  0.35200784110E+03  0.00000000000E+00 0.  1.
         14    1    3    3    0    0  0.41598112709E+02 -0.34038797852E+02 -0.75269890380E+03  0.75461558593E+03  0.00000000000E+00 0. -1.
          5    1    4    4  501    0 -0.82202544311E+02  0.85073898440E+02  0.19136504418E+03  0.22502776855E+03  0.47000000000E+01 0.  1.
         -5    1    4    4    0  501  0.30841611023E+02  0.40801624099E+02  0.18671975203E+02  0.54650801985E+02  0.47000000000E+01 0.  1.
          1    1    1    2  502    0  0.35347979392E+02 -0.74995738380E+02 -0.15984774706E+04  0.16006261476E+04  0.00000000000E+00 0. -1.
          1    1    1    2  503    0 -0.25124868504E+01 -0.13839492289E+02  0.96519872709E+03  0.96530121046E+03  0.00000000000E+00 0. -1.
<mgrwt>
<rscale>  0 0.34155311E+02</rscale>
<asrwt>0</asrwt>
<pdfrwt beam="1">  1        2 0.20300013E+00 0.14065708E+02</pdfrwt>
<pdfrwt beam="2">  1        2 0.40540142E+00 0.82938254E+02</pdfrwt>
<totfact> 0.13280603E+01</totfact>
</mgrwt>
</event>
<event>
13    1  0.1595792E-008  0.5227402E+02  0.7546771E-02  0.1533181E+00
          2   -1    0    0  503    0  0.00000000000E+00  0.00000000000E+00  0.22993123047E+04  0.22993123047E+04  0.00000000000E+00 0. -1.
         -1   -1    0    0    0  501 -0.00000000000E+00 -0.00000000000E+00 -0.20429437900E+03  0.20429437900E+03  0.00000000000E+00 0.  1.
         24    2    1    2    0    0  0.59229281242E+02 -0.17146108106E+02  0.20090986106E+03  0.22638916785E+03  0.84173548504E+02 0.  0.
         25    2    1    2    0    0 -0.11906438596E+03  0.31623274473E+03  0.36924086352E+03  0.51589144685E+03  0.12500277117E+03 0.  0.
         24    2    1    2    0    0  0.63205671891E+02 -0.22216474809E+03  0.83949964055E+03  0.87442912609E+03  0.80712562906E+02 0.  0.
        -11    1    3    3    0    0  0.77538145827E+02  0.15198474485E+01  0.16055813266E+03  0.17830700480E+03  0.00000000000E+00 0.  1.
         12    1    3    3    0    0 -0.18308864586E+02 -0.18665955554E+02  0.40351728395E+02  0.48082163050E+02  0.00000000000E+00 0. -1.
        -11    1    5    5    0    0 -0.19352702575E+02 -0.38875618093E+02  0.13526424469E+03  0.14206426951E+03  0.00000000000E+00 0.  1.
         12    1    5    5    0    0  0.82558374466E+02 -0.18328913000E+03  0.70423539586E+03  0.73236485658E+03  0.00000000000E+00 0. -1.
          5    1    4    4  502    0  0.18132288892E+02  0.45335125686E+02  0.19733093245E+02  0.52872852112E+02  0.47000000000E+01 0.  1.
         -5    1    4    4    0  502 -0.13719667485E+03  0.27089761905E+03  0.34950777027E+03  0.46301859474E+03  0.47000000000E+01 0.  1.
          1    1    1    2  503    0 -0.80581707284E+01 -0.51444340287E+02  0.78358876149E+03  0.78531700694E+03  0.00000000000E+00 0. -1.
         -2    1    1    2    0  501  0.46876035562E+01 -0.25477548251E+02 -0.98221200892E+02  0.10157993599E+03  0.00000000000E+00 0.  1.
<mgrwt>
<rscale>  0 0.36799031E+02</rscale>
<asrwt>0</asrwt>
<pdfrwt beam="1">  1        2 0.33813415E+00 0.52274020E+02</pdfrwt>
<pdfrwt beam="2">  1       -1 0.30043292E-01 0.25905194E+02</pdfrwt>
<totfact> 0.79054764E+01</totfact>
</mgrwt>
</event>
<event>
13    1  0.1595792E-008  0.8732414E+02  0.7546771E-02  0.1311146E+00
          2   -1    0    0  503    0  0.00000000000E+00  0.00000000000E+00  0.18884271562E+04  0.18884271562E+04  0.00000000000E+00 0. -1.
          2   -1    0    0  502    0 -0.00000000000E+00 -0.00000000000E+00 -0.14304267880E+04  0.14304267880E+04  0.00000000000E+00 0. -1.
         24    2    1    2    0    0 -0.22612413036E+02 -0.63559505063E+02 -0.12283445195E+03  0.16093636224E+03  0.79126975176E+02 0.  0.
         25    2    1    2    0    0  0.12338535040E+03  0.76240017480E+02 -0.15800980116E+03  0.24825267995E+03  0.12500324348E+03 0.  0.
         24    2    1    2    0    0  0.19993275488E+02  0.97728344029E+02  0.51037437647E+03  0.52632795602E+03  0.81169901080E+02 0.  0.
        -13    1    5    5    0    0 -0.23231931045E+02  0.77439054128E+02  0.31849727074E+03  0.32859860194E+03  0.00000000000E+00 0.  1.
         14    1    5    5    0    0  0.43225206533E+02  0.20289289902E+02  0.19187710573E+03  0.19772935408E+03  0.00000000000E+00 0. -1.
        -13    1    3    3    0    0  0.16034895165E+02  0.53396239776E+01 -0.52540016792E+02  0.55191329135E+02  0.00000000000E+00 0.  1.
         14    1    3    3    0    0 -0.38647308201E+02 -0.68899129041E+02 -0.70294435154E+02  0.10574503311E+03  0.00000000000E+00 0. -1.
          5    1    4    4  501    0  0.53328433959E+02 -0.31832839811E+02 -0.44945361037E+02  0.76807727721E+02  0.47000000000E+01 0.  1.
         -5    1    4    4    0  501  0.70056916438E+02  0.10807285729E+03 -0.11306444012E+03  0.17144495223E+03  0.47000000000E+01 0.  1.
          1    1    1    2  502    0 -0.79893675089E+02 -0.34739906910E+02 -0.10742520723E+04  0.10777789083E+04  0.00000000000E+00 0. -1.
          1    1    1    2  503    0 -0.40872537759E+02 -0.75668949536E+02  0.13027223171E+04  0.13055580377E+04  0.00000000000E+00 0. -1.
<mgrwt>
<rscale>  0 0.86660580E+02</rscale>
<asrwt>0</asrwt>
<pdfrwt beam="1">  1        2 0.27770988E+00 0.86002060E+02</pdfrwt>
<pdfrwt beam="2">  1        2 0.21035688E+00 0.87324143E+02</pdfrwt>
<totfact> 0.28715930E+01</totfact>
</mgrwt>
</event>
<event>
13    1  0.1595792E-008  0.4861641E+02  0.7546771E-02  0.1695969E+00
          2   -1    0    0  502    0  0.00000000000E+00  0.00000000000E+00  0.42425833922E+04  0.42425833922E+04  0.00000000000E+00 0. -1.
          2   -1    0    0  503    0 -0.00000000000E+00 -0.00000000000E+00 -0.55819494843E+03  0.55819494843E+03  0.00000000000E+00 0. -1.
         24    2    1    2    0    0  0.26299523734E+03  0.67529043497E+02 -0.48411056835E+02  0.28916436147E+03  0.86866166866E+02 0.  0.
         25    2    1    2    0    0 -0.52950268032E+03 -0.17692507390E+03  0.10435010416E+04  0.11900403092E+04  0.12500377372E+03 0.  0.
         24    2    1    2    0    0  0.24291228880E+03  0.15072208393E+03  0.76954288752E+03  0.82552666916E+03  0.87031598473E+02 0.  0.
        -13    1    3    3    0    0  0.32902579616E+02  0.29980914538E+02  0.15987518343E+02  0.47297312024E+02  0.00000000000E+00 0.  1.
         14    1    3    3    0    0  0.23009265772E+03  0.37548128959E+02 -0.64398575178E+02  0.24186704945E+03  0.00000000000E+00 0. -1.
        -13    1    5    5    0    0  0.64417842962E+02  0.10243228306E+02  0.10906688249E+03  0.12708330762E+03  0.00000000000E+00 0.  1.
         14    1    5    5    0    0  0.17849444584E+03  0.14047885562E+03  0.66047600503E+03  0.69844336155E+03  0.00000000000E+00 0. -1.
          5    1    4    4  501    0 -0.25839717303E+03 -0.69469820492E+02  0.37513186572E+03  0.46080490630E+03  0.47000000000E+01 0.  1.
         -5    1    4    4    0  501 -0.27110550729E+03 -0.10745525341E+03  0.66836917592E+03  0.72923540293E+03  0.47000000000E+01 0.  1.
          1    1    1    2  502    0  0.14298042760E+02 -0.46468599765E+02  0.22075355964E+04  0.22080709170E+04  0.00000000000E+00 0. -1.
          1    1    1    2  503    0  0.92971114262E+01  0.51425462396E+01 -0.28778002499E+03  0.28797608381E+03  0.00000000000E+00 0. -1.
<mgrwt>
<rscale>  0 0.22727290E+02</rscale>
<asrwt>0</asrwt>
<pdfrwt beam="1">  1        2 0.62390931E+00 0.48616406E+02</pdfrwt>
<pdfrwt beam="2">  1        2 0.82087495E-01 0.10624597E+02</pdfrwt>
<totfact> 0.55701095E+00</totfact>
</mgrwt>
</event>
<event>
13    1  0.1595792E-008  0.8223612E+02  0.7546771E-02  0.1428621E+00
          2   -1    0    0  502    0  0.00000000000E+00  0.00000000000E+00  0.34006937491E+03  0.34006937491E+03  0.00000000000E+00 0. -1.
          2   -1    0    0  503    0 -0.00000000000E+00 -0.00000000000E+00 -0.86718220910E+03  0.86718220910E+03  0.00000000000E+00 0. -1.
         24    2    1    2    0    0 -0.99970654119E+02  0.18626175764E+03 -0.11659434881E+03  0.25540180272E+03  0.83356251198E+02 0.  0.
         25    2    1    2    0    0  0.17557395184E+03 -0.27647025428E+03 -0.31872131847E+03  0.47378649824E+03  0.12501341128E+03 0.  0.
         24    2    1    2    0    0 -0.52143070557E+02 -0.16169141868E+02  0.32290835167E+02  0.10278792010E+03  0.80884593876E+02 0.  0.
        -11    1    3    3    0    0 -0.31719631468E+02  0.10311068448E+03 -0.98956046742E+02  0.14639073557E+03  0.00000000000E+00 0.  1.
         12    1    3    3    0    0 -0.68251022651E+02  0.83151073161E+02 -0.17638302065E+02  0.10901106715E+03  0.00000000000E+00 0. -1.
        -13    1    5    5    0    0  0.32845817843E+01 -0.27531823941E+02 -0.12702905199E+02  0.30498419754E+02  0.00000000000E+00 0.  1.
         14    1    5    5    0    0 -0.55427652341E+02  0.11362682073E+02  0.44993740365E+02  0.72289500344E+02  0.00000000000E+00 0. -1.
          5    1    4    4  501    0  0.31000482014E+02 -0.13003360997E+03 -0.18514780071E+03  0.22841096233E+03  0.47000000000E+01 0. -1.
         -5    1    4    4    0  501  0.14457346982E+03 -0.14643664431E+03 -0.13357351777E+03  0.24537553591E+03  0.47000000000E+01 0. -1.
          1    1    1    2  502    0 -0.23830951545E+02  0.24898104987E+02  0.11638100510E+03  0.12137696747E+03  0.00000000000E+00 0. -1.
          1    1    1    2  503    0  0.37072438286E+00  0.81479533525E+02 -0.24046900718E+03  0.25389839549E+03  0.00000000000E+00 0. -1.
<mgrwt>
<rscale>  0 0.53237773E+02</rscale>
<asrwt>0</asrwt>
<pdfrwt beam="1">  1        2 0.50010203E-01 0.34464908E+02</pdfrwt>
<pdfrwt beam="2">  1        2 0.12752679E+00 0.82236124E+02</pdfrwt>
<totfact> 0.54698890E+02</totfact>
</mgrwt>
</event>
<event>
13    1  0.1595792E-008  0.9924849E+02  0.7546771E-02  0.1355964E+00
          2   -1    0    0  503    0  0.00000000000E+00  0.00000000000E+00  0.76633933630E+03  0.76633933630E+03  0.00000000000E+00 0. -1.
          2   -1    0    0  502    0 -0.00000000000E+00 -0.00000000000E+00 -0.43066825672E+04  0.43066825672E+04  0.00000000000E+00 0. -1.
         24    2    1    2    0    0 -0.12499924050E+03  0.42567351571E+02 -0.17455961237E+04  0.17525324090E+04  0.82627040971E+02 0.  0.
         25    2    1    2    0    0  0.18751327435E+03  0.13706136029E+03 -0.56858923926E+03  0.62678748889E+03  0.12498715409E+03 0.  0.
         24    2    1    2    0    0 -0.16521838006E+03 -0.18771782275E+03 -0.32110793072E+03  0.41499241801E+03  0.81075950493E+02 0.  0.
        -11    1    3    3    0    0 -0.27009855159E+02  0.72714194655E+01 -0.10590106030E+03  0.10953282791E+03  0.00000000000E+00 0.  1.
         12    1    3    3    0    0 -0.97989385339E+02  0.35295932105E+02 -0.16396950634E+04  0.16429995811E+04  0.00000000000E+00 0. -1.
        -13    1    5    5    0    0 -0.55959881859E+02 -0.62979733200E+02 -0.17399407480E+03  0.19331811409E+03  0.00000000000E+00 0.  1.
         14    1    5    5    0    0 -0.10925849820E+03 -0.12473808955E+03 -0.14711385592E+03  0.22167430392E+03  0.00000000000E+00 0. -1.
          5    1    4    4  501    0  0.17516226194E+03  0.64576650377E+02 -0.35975044349E+03  0.40533249731E+03  0.47000000000E+01 0. -1.
         -5    1    4    4    0  501  0.12351012405E+02  0.72484709915E+02 -0.20883879577E+03  0.22145499158E+03  0.47000000000E+01 0. -1.
          1    1    1    2  502    0  0.12522679278E+02  0.49561640137E+02 -0.15878799977E+04  0.15887026345E+04  0.00000000000E+00 0. -1.
          1    1    1    2  503    0  0.90181666935E+02 -0.41472529254E+02  0.68283006054E+03  0.69000695309E+03  0.00000000000E+00 0. -1.
<mgrwt>
<rscale>  0 0.71228537E+02</rscale>
<asrwt>0</asrwt>
<pdfrwt beam="1">  1        2 0.11269696E+00 0.99248492E+02</pdfrwt>
<pdfrwt beam="2">  1        2 0.63333567E+00 0.51119210E+02</pdfrwt>
<totfact> 0.33593316E+00</totfact>
</mgrwt>
</event>
<event>
13    1  0.1595792E-008  0.4887856E+02  0.7546771E-02  0.1503664E+00
          2   -1    0    0  503    0  0.00000000000E+00  0.00000000000E+00  0.32999537916E+04  0.32999537916E+04  0.00000000000E+00 0. -1.
          2   -1    0    0  502    0 -0.00000000000E+00 -0.00000000000E+00 -0.26910516667E+04  0.26910516667E+04  0.00000000000E+00 0. -1.
         24    2    1    2    0    0 -0.83269724090E+02 -0.11119689860E+03 -0.47372417945E+03  0.49707859220E+03  0.58085552532E+02 0.  0.
         25    2    1    2    0    0 -0.65697732525E+03 -0.17420750836E+03  0.54512240005E+02  0.69322988786E+03  0.12501452412E+03 0.  0.
         24    2    1    2    0    0  0.68389186681E+03  0.25372173860E+03  0.83185295154E+03  0.11092459830E+04  0.79777890095E+02 0.  0.
        -13    1    3    3    0    0 -0.51367583176E+02 -0.89068657110E+02 -0.40788047204E+03  0.42064038531E+03  0.00000000000E+00 0.  1.
         14    1    3    3    0    0 -0.31902140914E+02 -0.22128241488E+02 -0.65843707413E+02  0.76438206887E+02  0.00000000000E+00 0. -1.
        -13    1    5    5    0    0  0.57894537860E+03  0.23180563704E+03  0.67216010774E+03  0.91690283847E+03  0.00000000000E+00 0.  1.
         14    1    5    5    0    0  0.10494648821E+03  0.21916101559E+02  0.15969284380E+03  0.19234314455E+03  0.00000000000E+00 0. -1.
          5    1    4    4  501    0 -0.69966514026E+02 -0.56337817186E+02 -0.12212560472E+02  0.90777196274E+02  0.47000000000E+01 0. -1.
         -5    1    4    4    0  501 -0.58701081123E+03 -0.11786969118E+03  0.66724800477E+02  0.60245269158E+03  0.47000000000E+01 0. -1.
          1    1    1    2  502    0  0.48861153991E+02 -0.12398382796E+01 -0.17471065161E+04  0.17477900699E+04  0.00000000000E+00 0. -1.
          1    1    1    2  503    0  0.74940285461E+01  0.32922506639E+02  0.19433676289E+04  0.19436609254E+04  0.00000000000E+00 0. -1.
<mgrwt>
<rscale>  0 0.40624718E+02</rscale>
<asrwt>0</asrwt>
<pdfrwt beam="1">  1        2 0.48528732E+00 0.33764655E+02</pdfrwt>
<pdfrwt beam="2">  1        2 0.39574289E+00 0.48878560E+02</pdfrwt>
<totfact> 0.17511123E+00</totfact>
</mgrwt>
</event>
<event>
13    1  0.1595792E-008  0.6305577E+02  0.7546771E-02  0.1561700E+00
          2   -1    0    0  503    0  0.00000000000E+00  0.00000000000E+00  0.17818838946E+04  0.17818838946E+04  0.00000000000E+00 0. -1.
         -1   -1    0    0    0  501 -0.00000000000E+00 -0.00000000000E+00 -0.73665619837E+02  0.73665619837E+02  0.00000000000E+00 0.  1.
         24    2    1    2    0    0 -0.10668913677E+03  0.80181058849E+02  0.24427234719E+03  0.29029293583E+03  0.82398027208E+02 0.  0.
         25    2    1    2    0    0  0.22809922963E+01  0.67996350650E+02  0.24188435053E+03  0.28064376938E+03  0.12499671849E+03 0.  0.
         24    2    1    2    0    0  0.53104420018E+02 -0.86833535248E+02  0.70393610179E+03  0.71577878216E+03  0.80331110522E+02 0.  0.
        -11    1    5    5    0    0  0.29336748237E+02 -0.11567793171E+02  0.67919550956E+02  0.74883402954E+02  0.00000000000E+00 0.  1.
         12    1    5    5    0    0  0.23767671781E+02 -0.75265742078E+02  0.63601655083E+03  0.64089537920E+03  0.00000000000E+00 0. -1.
        -13    1    3    3    0    0 -0.49212272905E+02  0.48693667440E+02  0.50372848745E+02  0.85617433645E+02  0.00000000000E+00 0.  1.
         14    1    3    3    0    0 -0.57476863868E+02  0.31487391409E+02  0.19389949844E+03  0.20467550218E+03  0.00000000000E+00 0. -1.
          5    1    4    4  502    0  0.90433550752E+01 -0.32476295220E+02  0.10678110193E+03  0.11207491134E+03  0.47000000000E+01 0. -1.
         -5    1    4    4    0  502 -0.67623627789E+01  0.10047264587E+03  0.13510324860E+03  0.16856885804E+03  0.47000000000E+01 0. -1.
          1    1    1    2  503    0  0.86081609267E+01 -0.15659782690E+02  0.50452639393E+03  0.50484275908E+03  0.00000000000E+00 0. -1.
         -2    1    1    2    0  501  0.42695563533E+02 -0.45684091561E+02  0.13599081343E+02  0.63991268002E+02  0.00000000000E+00 0.  1.
<mgrwt>
<rscale>  0 0.33567740E+02</rscale>
<asrwt>0</asrwt>
<pdfrwt beam="1">  1        2 0.26204172E+00 0.17869785E+02</pdfrwt>
<pdfrwt beam="2">  1       -1 0.10833181E-01 0.63055774E+02</pdfrwt>
<totfact> 0.78174025E+02</totfact>
</mgrwt>
</event>
<event>
13    1  0.1595792E-008  0.1753992E+03  0.7546771E-02  0.1324358E+00
          2   -1    0    0  503    0  0.00000000000E+00  0.00000000000E+00  0.13845858263E+04  0.13845858263E+04  0.00000000000E+00 0. -1.
          2   -1    0    0  502    0 -0.00000000000E+00 -0.00000000000E+00 -0.27734681364E+04  0.27734681364E+04  0.00000000000E+00 0. -1.
         24    2    1    2    0    0  0.96740929703E+02 -0.96582462226E+02 -0.50449225904E+03  0.52821639636E+03  0.76243966735E+02 0.  0.
         25    2    1    2    0    0 -0.10762792858E+03 -0.17208046260E+03  0.25723515643E+01  0.23836533322E+03  0.12496382864E+03 0.  0.
         24    2    1    2    0    0 -0.44283648523E+02 -0.71791526013E+01 -0.20468521280E+02  0.93076663465E+02  0.78941263987E+02 0.  0.
        -11    1    5    5    0    0 -0.24391245708E+02  0.35789697950E+02 -0.72251452875E+01  0.43909430320E+02  0.00000000000E+00 0.  1.
         12    1    5    5    0    0 -0.19892402815E+02 -0.42968850552E+02 -0.13243375993E+02  0.49167233145E+02  0.00000000000E+00 0. -1.
        -11    1    3    3    0    0  0.39856011143E+02 -0.18747213517E+01 -0.20838655965E+03  0.21217203974E+03  0.00000000000E+00 0.  1.
         12    1    3    3    0    0  0.56884918560E+02 -0.94707740874E+02 -0.29610569939E+03  0.31604435663E+03  0.00000000000E+00 0. -1.
          5    1    4    4  501    0 -0.79349954892E+02 -0.12843411640E+03 -0.54902843658E+02  0.16071138678E+03  0.47000000000E+01 0. -1.
         -5    1    4    4    0  501 -0.28277973688E+02 -0.43646346202E+02  0.57475195223E+02  0.77653946446E+02  0.47000000000E+01 0. -1.
          1    1    1    2  502    0  0.43155803415E+02  0.23975535136E+03 -0.20750200803E+04  0.20892710177E+04  0.00000000000E+00 0. -1.
          1    1    1    2  503    0  0.12014843985E+02  0.36086726071E+02  0.12085261990E+04  0.12091245518E+04  0.00000000000E+00 0. -1.
<mgrwt>
<rscale>  0 0.81677335E+02</rscale>
<asrwt>0</asrwt>
<pdfrwt beam="1">  1        2 0.20361556E+00 0.38034304E+02</pdfrwt>
<pdfrwt beam="2">  1        2 0.40786296E+00 0.17539921E+03</pdfrwt>
<totfact> 0.10766986E+01</totfact>
</mgrwt>
</event>
<event>
13    1  0.1595792E-008  0.2320754E+03  0.7546771E-02  0.1177589E+00
          2   -1    0    0  503    0  0.00000000000E+00  0.00000000000E+00  0.48971824757E+04  0.48971824757E+04  0.00000000000E+00 0. -1.
          2   -1    0    0  502    0 -0.00000000000E+00 -0.00000000000E+00 -0.74352674477E+03  0.74352674477E+03  0.00000000000E+00 0. -1.
         24    2    1    2    0    0  0.15039022296E+03  0.52913289122E+02 -0.49681317979E+01  0.17132989020E+03  0.62547690733E+02 0.  0.
         25    2    1    2    0    0  0.31986734785E+03  0.13136821037E+03  0.67609922963E+03  0.76961377838E+03  0.12498989022E+03 0.  0.
         24    2    1    2    0    0 -0.37083906111E+02  0.14419700058E+03  0.84781637242E+03  0.86504732853E+03  0.85710490531E+02 0.  0.
        -11    1    5    5    0    0  0.30692013667E+01  0.77971480126E+01  0.39106646430E+01  0.92470974965E+01  0.00000000000E+00 0.  1.
         12    1    5    5    0    0 -0.40153107478E+02  0.13639985256E+03  0.84390570778E+03  0.85580023103E+03  0.00000000000E+00 0. -1.
        -13    1    3    3    0    0  0.10767282643E+03  0.63371170078E+02  0.87981909187E+01  0.12524676009E+03  0.00000000000E+00 0.  1.
         14    1    3    3    0    0  0.42717396524E+02 -0.10457880956E+02 -0.13766322717E+02  0.46083130113E+02  0.00000000000E+00 0. -1.
          5    1    4    4  501    0  0.14780902874E+03  0.21568883809E+02  0.18538319313E+03  0.23812128007E+03  0.47000000000E+01 0. -1.
         -5    1    4    4    0  501  0.17205831910E+03  0.10979932656E+03  0.49071603650E+03  0.53149249831E+03  0.47000000000E+01 0. -1.
          1    1    1    2  502    0 -0.22608248568E+03 -0.38930197121E+02 -0.56784790278E+03  0.61243782645E+03  0.00000000000E+00 0. -1.
          1    1    1    2  503    0 -0.20709117902E+03 -0.28954830294E+03  0.32025561635E+04  0.32222803969E+04  0.00000000000E+00 0. -1.
<mgrwt>
<rscale>  0 0.17024826E+03</rscale>
<asrwt>0</asrwt>
<pdfrwt beam="1">  1        2 0.72017388E+00 0.23207540E+03</pdfrwt>
<pdfrwt beam="2">  1        2 0.10934217E+00 0.12489248E+03</pdfrwt>
<totfact> 0.77705268E-01</totfact>
</mgrwt>
</event>
<event>
13    1  0.1595792E-008  0.8526710E+02  0.7546771E-02  0.1409188E+00
          2   -1    0    0  503    0  0.00000000000E+00  0.00000000000E+00  0.21724368846E+04  0.21724368846E+04  0.00000000000E+00 0. -1.
          2   -1    0    0  502    0 -0.00000000000E+00 -0.00000000000E+00 -0.64996428172E+03  0.64996428172E+03  0.00000000000E+00 0. -1.
         24    2    1    2    0    0  0.12437422877E+03 -0.88703562080E+02 -0.18052049164E+03  0.25075418158E+03  0.83383097632E+02 0.  0.
         25    2    1    2    0    0 -0.24242291302E+03  0.18679798413E+03  0.30455252616E+03  0.44948819789E+03  0.12500017288E+03 0.  0.
         24    2    1    2    0    0  0.12098121481E+02 -0.59807186853E+02  0.88313339742E+03  0.88895987953E+03  0.81251496181E+02 0.  0.
        -11    1    5    5    0    0  0.51489961647E+01  0.17637210280E+02  0.80558850646E+02  0.82627548465E+02  0.00000000000E+00 0.  1.
         12    1    5    5    0    0  0.69491253165E+01 -0.77444397133E+02  0.80257454678E+03  0.80633233107E+03  0.00000000000E+00 0. -1.
        -13    1    3    3    0    0  0.25783377741E+02  0.15871499397E+02 -0.33506106316E+02  0.45159121131E+02  0.00000000000E+00 0.  1.
         14    1    3    3    0    0  0.98590851024E+02 -0.10457506148E+03 -0.14701438533E+03  0.20559506045E+03  0.00000000000E+00 0. -1.
          5    1    4    4  501    0 -0.17782958466E+03  0.16086956108E+03  0.15808272592E+03  0.28725357282E+03  0.47000000000E+01 0. -1.
         -5    1    4    4    0  501 -0.64593328361E+02  0.25928423050E+02  0.14646980023E+03  0.16223462507E+03  0.47000000000E+01 0. -1.
          1    1    1    2  502    0  0.69100460941E+02 -0.49802251996E+02 -0.35345803016E+03  0.36357628786E+03  0.00000000000E+00 0. -1.
          1    1    1    2  503    0  0.36850101833E+02  0.11515016796E+02  0.86876520115E+03  0.86962261950E+03  0.00000000000E+00 0. -1.
<mgrwt>
<rscale>  0 0.57375383E+02</rscale>
<asrwt>0</asrwt>
<pdfrwt beam="1">  1        2 0.31947601E+00 0.38607326E+02</pdfrwt>
<pdfrwt beam="2">  1        2 0.95582983E-01 0.85267097E+02</pdfrwt>
<totfact> 0.65728723E+01</totfact>
</mgrwt>
</event>
<event>
13    1  0.1595792E-008  0.7469124E+02  0.7546771E-02  0.1364529E+00
          2   -1    0    0  502    0  0.00000000000E+00  0.00000000000E+00  0.20980827844E+04  0.20980827844E+04  0.00000000000E+00 0. -1.
          2   -1    0    0  503    0 -0.00000000000E+00 -0.00000000000E+00 -0.98745022918E+03  0.98745022918E+03  0.00000000000E+00 0. -1.
         24    2    1    2    0    0 -0.49468305259E+02  0.13006193920E+02 -0.29960600504E+03  0.31521288980E+03  0.83541207424E+02 0.  0.
         25    2    1    2    0    0  0.26685692287E+02  0.58826746718E+01 -0.15880989392E+03  0.20394094398E+03  0.12499837676E+03 0.  0.
         24    2    1    2    0    0  0.35401920380E+02 -0.24924328586E+02  0.18782436936E+03  0.20929472760E+03  0.81558391066E+02 0.  0.
        -11    1    3    3    0    0  0.15300834228E+02 -0.32854133419E+01 -0.15660144704E+03  0.15738145597E+03  0.00000000000E+00 0.  1.
         12    1    3    3    0    0 -0.64769139487E+02  0.16291607262E+02 -0.14300455800E+03  0.15783143383E+03  0.00000000000E+00 0. -1.
        -13    1    5    5    0    0  0.34124352481E+02 -0.12139893129E+02  0.19230622966E+03  0.19568733838E+03  0.00000000000E+00 0.  1.
         14    1    5    5    0    0  0.12775678986E+01 -0.12784435457E+02 -0.44818602953E+01  0.13607389221E+02  0.00000000000E+00 0. -1.
          5    1    4    4  501    0 -0.17672999924E+02  0.54177802618E+02 -0.10253573661E+03  0.11740202939E+03  0.47000000000E+01 0. -1.
         -5    1    4    4    0  501  0.44358692211E+02 -0.48295127946E+02 -0.56274157310E+02  0.86538914593E+02  0.47000000000E+01 0. -1.
          1    1    1    2  502    0  0.62862626910E+02  0.66267227762E+01  0.18656964001E+04  0.18667669058E+04  0.00000000000E+00 0. -1.
          1    1    1    2  503    0 -0.75481934318E+02 -0.59126278273E+00 -0.48447231529E+03  0.49031754637E+03  0.00000000000E+00 0. -1.
<mgrwt>
<rscale>  0 0.68711744E+02</rscale>
<asrwt>0</asrwt>
<pdfrwt beam="1">  1        2 0.30854159E+00 0.63210943E+02</pdfrwt>
<pdfrwt beam="2">  1        2 0.14521327E+00 0.74691241E+02</pdfrwt>
<totfact> 0.40785607E+01</totfact>
</mgrwt>
</event>
<event>
13    1  0.1595792E-008  0.1155013E+03  0.7546771E-02  0.1288612E+00
          2   -1    0    0  502    0  0.00000000000E+00  0.00000000000E+00  0.22038430157E+04  0.22038430157E+04  0.00000000000E+00 0. -1.
          2   -1    0    0  503    0 -0.00000000000E+00 -0.00000000000E+00 -0.57574489079E+03  0.57574489079E+03  0.00000000000E+00 0. -1.
         24    2    1    2    0    0 -0.18633919069E+03 -0.47521529192E+02 -0.32723664847E+03  0.38628863422E+03  0.71794812475E+02 0.  0.
         25    2    1    2    0    0 -0.40008893877E+02  0.19567075581E+02  0.22521276379E+03  0.26139894288E+03  0.12500014532E+03 0.  0.
         24    2    1    2    0    0  0.12355858877E+02  0.39220318616E+02  0.36997206574E+03  0.38064634842E+03  0.79507310987E+02 0.  0.
        -11    1    3    3    0    0 -0.12731812146E+03  0.24982821460E+01 -0.21717269036E+03  0.25175409213E+03  0.00000000000E+00 0.  1.
         12    1    3    3    0    0 -0.59021069224E+02 -0.50019811338E+02 -0.11006395811E+03  0.13453454209E+03  0.00000000000E+00 0. -1.
        -13    1    5    5    0    0  0.57138552772E+00 -0.14957921302E+02  0.14377562005E+02  0.20755244646E+02  0.00000000000E+00 0.  1.
         14    1    5    5    0    0  0.11784473350E+02  0.54178239918E+02  0.35559450373E+03  0.35989110378E+03  0.00000000000E+00 0. -1.
          5    1    4    4  501    0 -0.30134112547E+02  0.16168579771E+02  0.24012678686E+03  0.24259524207E+03  0.47000000000E+01 0.  1.
         -5    1    4    4    0  501 -0.98747813300E+01  0.33984958107E+01 -0.14914023067E+02  0.18803700809E+02  0.47000000000E+01 0.  1.
          1    1    1    2  502    0  0.13434998125E+03 -0.33258969489E+01  0.15444703837E+04  0.15503063391E+04  0.00000000000E+00 0. -1.
          1    1    1    2  503    0  0.79642244440E+02 -0.79399680565E+01 -0.18432043987E+03  0.20094764180E+03  0.00000000000E+00 0. -1.
<mgrwt>
<rscale>  0 0.96147728E+02</rscale>
<asrwt>0</asrwt>
<pdfrwt beam="1">  1        2 0.32409456E+00 0.11550132E+03</pdfrwt>
<pdfrwt beam="2">  1        2 0.84668367E-01 0.80037055E+02</pdfrwt>
<totfact> 0.63812230E+01</totfact>
</mgrwt>
</event>
<event>
13    1  0.1595792E-008  0.1424744E+03  0.7546771E-02  0.1349867E+00
          2   -1    0    0  503    0  0.00000000000E+00  0.00000000000E+00  0.99552125786E+03  0.99552125786E+03  0.00000000000E+00 0. -1.
          2   -1    0    0  502    0 -0.00000000000E+00 -0.00000000000E+00 -0.18760852585E+03  0.18760852585E+03  0.00000000000E+00 0. -1.
         24    2    1    2    0    0 -0.53611199579E+02  0.25369251059E+02  0.89477770201E+02  0.13450531926E+03  0.81041038546E+02 0.  0.
         25    2    1    2    0    0  0.15614532528E+03 -0.12578408499E+03  0.33727279597E+03  0.41180222427E+03  0.12500053747E+03 0.  0.
         24    2    1    2    0    0 -0.65481930480E+02 -0.72673983524E+02  0.26323400190E+03  0.29222297278E+03  0.80825336157E+02 0.  0.
        -11    1    5    5    0    0 -0.19737629387E+02 -0.39694247486E+02  0.21015217433E+03  0.21477696262E+03  0.00000000000E+00 0.  1.
         12    1    5    5    0    0 -0.45744301094E+02 -0.32979736037E+02  0.53081827567E+02  0.77446010159E+02  0.00000000000E+00 0. -1.
        -11    1    3    3    0    0  0.24275737946E+01  0.15532047231E+02 -0.10896113684E+02  0.19127542945E+02  0.00000000000E+00 0.  1.
         12    1    3    3    0    0 -0.56038773373E+02  0.98372038286E+01  0.10037388388E+03  0.11537777631E+03  0.00000000000E+00 0. -1.
          5    1    4    4  501    0 -0.17591366032E+02 -0.82997914959E+01  0.65453429807E+02  0.68444022173E+02  0.47000000000E+01 0. -1.
         -5    1    4    4    0  501  0.17373669131E+03 -0.11748429349E+03  0.27181936617E+03  0.34335820210E+03  0.47000000000E+01 0. -1.
          1    1    1    2  502    0 -0.33555761199E+02  0.13574952643E+03 -0.67600463850E+02  0.15531820803E+03  0.00000000000E+00 0. -1.
          1    1    1    2  503    0 -0.34964340182E+01  0.37339291027E+02  0.18552862779E+03  0.18928105937E+03  0.00000000000E+00 0. -1.
<mgrwt>
<rscale>  0 0.73096961E+02</rscale>
<asrwt>0</asrwt>
<pdfrwt beam="1">  1        2 0.14640018E+00 0.37502636E+02</pdfrwt>
<pdfrwt beam="2">  1        2 0.27589490E-01 0.14247441E+03</pdfrwt>
<totfact> 0.91007540E+02</totfact>
</mgrwt>
</event>
<event>
13    1  0.1595792E-008  0.9424330E+02  0.7546771E-02  0.1563836E+00
          2   -1    0    0  503    0  0.00000000000E+00  0.00000000000E+00  0.16507521647E+04  0.16507521647E+04  0.00000000000E+00 0. -1.
          2   -1    0    0  502    0 -0.00000000000E+00 -0.00000000000E+00 -0.53477164540E+03  0.53477164540E+03  0.00000000000E+00 0. -1.
         24    2    1    2    0    0 -0.22025038346E+02 -0.18058185618E+02 -0.67987280574E+02  0.11038852705E+03  0.82171504814E+02 0.  0.
         25    2    1    2    0    0 -0.13556424056E+03  0.42389047086E+03  0.71360301843E+03  0.85024440137E+03  0.12500191819E+03 0.  0.
         24    2    1    2    0    0  0.10153217032E+03 -0.32192205312E+03  0.30230688110E+03  0.46016850763E+03  0.80143715690E+02 0.  0.
        -11    1    5    5    0    0  0.15293959739E+02 -0.91883413966E+01  0.17435635801E+01  0.17926818906E+02  0.00000000000E+00 0.  1.
         12    1    5    5    0    0  0.86238210580E+02 -0.31273371173E+03  0.30056331752E+03  0.44224168873E+03  0.00000000000E+00 0. -1.
        -13    1    3    3    0    0 -0.47055136142E+02 -0.33310542359E+02 -0.45586920956E+02  0.73497928078E+02  0.00000000000E+00 0.  1.
         14    1    3    3    0    0  0.25030097795E+02  0.15252356741E+02 -0.22400359618E+02  0.36890598976E+02  0.00000000000E+00 0. -1.
          5    1    4    4  501    0 -0.14627130898E+03  0.31995739836E+03  0.60212734484E+03  0.69738616419E+03  0.47000000000E+01 0.  1.
         -5    1    4    4    0  501  0.10707068416E+02  0.10393307250E+03  0.11147567358E+03  0.15285823718E+03  0.47000000000E+01 0.  1.
          1    1    1    2  502    0  0.65262896765E+02 -0.76534668042E+02 -0.28977631237E+03  0.30673622596E+03  0.00000000000E+00 0. -1.
          1    1    1    2  503    0 -0.92057881744E+01 -0.73755640833E+01  0.45783421273E+03  0.45798614807E+03  0.00000000000E+00 0. -1.
<mgrwt>
<rscale>  0 0.33342066E+02</rscale>
<asrwt>0</asrwt>
<pdfrwt beam="1">  1        2 0.24275767E+00 0.11795994E+02</pdfrwt>
<pdfrwt beam="2">  1        2 0.78642889E-01 0.94243295E+02</pdfrwt>
<totfact> 0.15940693E+02</totfact>
</mgrwt>
</event>
<event>
13    1  0.1595792E-008  0.1334901E+03  0.7546771E-02  0.1385785E+00
          2   -1    0    0  503    0  0.00000000000E+00  0.00000000000E+00  0.21765024236E+04  0.21765024236E+04  0.00000000000E+00 0. -1.
          2   -1    0    0  502    0 -0.00000000000E+00 -0.00000000000E+00 -0.42314696460E+04  0.42314696460E+04  0.00000000000E+00 0. -1.
         24    2    1    2    0    0  0.29396064205E+03 -0.41050298223E+03 -0.26392424828E+03  0.57832649641E+03  0.99398038840E+02 0.  0.
         25    2    1    2    0    0  0.20833650374E+03  0.14850002916E+03  0.47403332494E+02  0.28866909219E+03  0.12500564550E+03 0.  0.
         24    2    1    2    0    0 -0.37995961311E+03  0.30587283139E+03 -0.19722551168E+03  0.53236245094E+03  0.81144193483E+02 0.  0.
        -11    1    3    3    0    0  0.21635298042E+03 -0.25561813905E+03 -0.12951395086E+03  0.35905864231E+03  0.00000000000E+00 0.  1.
         12    1    3    3    0    0  0.77607661631E+02 -0.15488484318E+03 -0.13441029742E+03  0.21926785410E+03  0.00000000000E+00 0. -1.
        -13    1    5    5    0    0 -0.28093544745E+03  0.17733699698E+03 -0.13230384051E+03  0.35759955585E+03  0.00000000000E+00 0.  1.
         14    1    5    5    0    0 -0.99024165659E+02  0.12853583441E+03 -0.64921671172E+02  0.17476289509E+03  0.00000000000E+00 0. -1.
          5    1    4    4  501    0  0.20228733303E+03  0.14496038835E+03  0.87049687796E+01  0.24906132935E+03  0.47000000000E+01 0. -1.
         -5    1    4    4    0  501  0.60491707065E+01  0.35396408083E+01  0.38698363714E+02  0.39607762843E+02  0.47000000000E+01 0. -1.
          1    1    1    2  502    0 -0.11249772032E+03 -0.71894263772E+02 -0.33234460426E+04  0.33261265941E+04  0.00000000000E+00 0. -1.
          1    1    1    2  503    0 -0.98398123644E+01  0.28024385451E+02  0.16822252477E+04  0.16824874359E+04  0.00000000000E+00 0. -1.
<mgrwt>
<rscale>  0 0.62967262E+02</rscale>
<asrwt>0</asrwt>
<pdfrwt beam="1">  1        2 0.32007389E+00 0.29701651E+02</pdfrwt>
<pdfrwt beam="2">  1        2 0.62227494E+00 0.13349009E+03</pdfrwt>
<totfact> 0.65164699E-01</totfact>
</mgrwt>
</event>
<event>
13    1  0.1595792E-008  0.4285933E+02  0.7546771E-02  0.1502979E+00
          2   -1    0    0  502    0  0.00000000000E+00  0.00000000000E+00  0.17630465751E+03  0.17630465751E+03  0.00000000000E+00 0. -1.
          2   -1    0    0  503    0 -0.00000000000E+00 -0.00000000000E+00 -0.15451076759E+04  0.15451076759E+04  0.00000000000E+00 0. -1.
         24    2    1    2    0    0 -0.63047174247E+01  0.22539387975E+02 -0.29266373951E+03  0.30444712227E+03  0.80549440493E+02 0.  0.
         25    2    1    2    0    0  0.15222955586E+02  0.22213378944E+02 -0.22486714469E+03  0.25868037804E+03  0.12500053055E+03 0.  0.
         24    2    1    2    0    0  0.32340920364E+02  0.20269295339E+02 -0.64315238107E+02  0.10392205499E+03  0.72156525670E+02 0.  0.
        -11    1    3    3    0    0 -0.26398904770E+00  0.49850050635E+02 -0.12690608438E+03  0.13634607252E+03  0.00000000000E+00 0.  1.
         12    1    3    3    0    0 -0.60407283770E+01 -0.27310662660E+02 -0.16575765513E+03  0.16810104975E+03  0.00000000000E+00 0. -1.
        -13    1    5    5    0    0  0.51442239112E+02  0.30587324260E+02 -0.49077935194E+02  0.77398527720E+02  0.00000000000E+00 0.  1.
         14    1    5    5    0    0 -0.19101318748E+02 -0.10318028921E+02 -0.15237302913E+02  0.26523527269E+02  0.00000000000E+00 0. -1.
          5    1    4    4  501    0 -0.40667258144E+02  0.41115767652E+02 -0.16319355025E+03  0.17320091535E+03  0.47000000000E+01 0. -1.
         -5    1    4    4    0  501  0.55890213731E+02 -0.18902388708E+02 -0.61673594442E+02  0.85479462686E+02  0.47000000000E+01 0. -1.
          1    1    1    2  502    0 -0.32858342937E+02 -0.27257888661E+02  0.12987652789E+03  0.13671348028E+03  0.00000000000E+00 0. -1.
          1    1    1    2  503    0 -0.84008155885E+01 -0.37764173596E+02 -0.91683342399E+03  0.91764929785E+03  0.00000000000E+00 0. -1.
<mgrwt>
<rscale>  0 0.40719915E+02</rscale>
<asrwt>0</asrwt>
<pdfrwt beam="1">  1        2 0.25927155E-01 0.42859333E+02</pdfrwt>
<pdfrwt beam="2">  1        2 0.22722172E+00 0.38687291E+02</pdfrwt>
<totfact> 0.49951204E+02</totfact>
</mgrwt>
</event>
<event>
13    1  0.1595792E-008  0.8282381E+02  0.7546771E-02  0.1324631E+00
          2   -1    0    0  503    0  0.00000000000E+00  0.00000000000E+00  0.14133962869E+04  0.14133962869E+04  0.00000000000E+00 0. -1.
          2   -1    0    0  502    0 -0.00000000000E+00 -0.00000000000E+00 -0.35492167168E+03  0.35492167168E+03  0.00000000000E+00 0. -1.
         24    2    1    2    0    0  0.47660139996E+02 -0.18883924710E+01  0.10060061259E+01  0.93977355396E+02  0.80967131037E+02 0.  0.
         25    2    1    2    0    0  0.17723068835E+03  0.67870313865E+02  0.15066320953E+03  0.27265853445E+03  0.12500470913E+03 0.  0.
         24    2    1    2    0    0 -0.21773231151E+03 -0.21305795374E+03  0.72354642536E+03  0.78910222862E+03  0.79761183799E+02 0.  0.
        -13    1    3    3    0    0 -0.11819712697E+01  0.31895852139E+02  0.10988417743E+02  0.33756299623E+02  0.00000000000E+00 0.  1.
         14    1    3    3    0    0  0.48842111265E+02 -0.33784244610E+02 -0.99824116174E+01  0.60221055773E+02  0.00000000000E+00 0. -1.
        -13    1    5    5    0    0 -0.14942058123E+02 -0.92427871140E+01  0.11165065990E+03  0.11302461710E+03  0.00000000000E+00 0.  1.
         14    1    5    5    0    0 -0.20279025339E+03 -0.20381516662E+03  0.61189576546E+03  0.67607761152E+03  0.00000000000E+00 0. -1.
          5    1    4    4  501    0  0.16794950220E+03  0.91219201500E+02  0.99634444457E+02  0.21558545993E+03  0.47000000000E+01 0.  1.
         -5    1    4    4    0  501  0.92811861518E+01 -0.23348887635E+02  0.51028765071E+02  0.57073074517E+02  0.47000000000E+01 0.  1.
          1    1    1    2  502    0  0.31003923785E+02  0.76365393035E+02 -0.20245334774E+03  0.21858699539E+03  0.00000000000E+00 0. -1.
          1    1    1    2  503    0 -0.38162440621E+02  0.70710639310E+02  0.38571232197E+03  0.39399284474E+03  0.00000000000E+00 0. -1.
<mgrwt>
<rscale>  0 0.81578297E+02</rscale>
<asrwt>0</asrwt>
<pdfrwt beam="1">  1        2 0.20785239E+00 0.80351518E+02</pdfrwt>
<pdfrwt beam="2">  1        2 0.52194364E-01 0.82823806E+02</pdfrwt>
<totfact> 0.26647430E+02</totfact>
</mgrwt>
</event>
<event>
13    1  0.1595792E-008  0.5882924E+02  0.7546771E-02  0.1424002E+00
          2   -1    0    0  502    0  0.00000000000E+00  0.00000000000E+00  0.58987372210E+03  0.58987372210E+03  0.00000000000E+00 0. -1.
          2   -1    0    0  503    0 -0.00000000000E+00 -0.00000000000E+00 -0.65570523879E+03  0.65570523879E+03  0.00000000000E+00 0. -1.
         24    2    1    2    0    0  0.33927919814E+02 -0.46747354671E+02 -0.67605336292E+02  0.12217330682E+03  0.83781958044E+02 0.  0.
         25    2    1    2    0    0 -0.43004373379E+02 -0.33227601936E+02  0.36727551016E+02  0.14115703385E+03  0.12499178189E+03 0.  0.
         24    2    1    2    0    0 -0.21311308509E+02 -0.80774936174E+01  0.13317596363E+03  0.15694725786E+03  0.79857289521E+02 0.  0.
        -11    1    3    3    0    0 -0.20459206243E+01  0.23097423206E+02 -0.14653993239E+02  0.27430207215E+02  0.00000000000E+00 0.  1.
         12    1    3    3    0    0  0.35973840438E+02 -0.69844777877E+02 -0.52951343053E+02  0.94743099610E+02  0.00000000000E+00 0. -1.
        -13    1    5    5    0    0 -0.77578767724E+01  0.24370509162E+02  0.11412053882E+03  0.11695128793E+03  0.00000000000E+00 0.  1.
         14    1    5    5    0    0 -0.13553431737E+02 -0.32448002780E+02  0.19055424810E+02  0.39995969933E+02  0.00000000000E+00 0. -1.
          5    1    4    4  501    0 -0.12355643905E+02 -0.41118006848E+01 -0.46052716173E+02  0.48088579810E+02  0.47000000000E+01 0.  1.
         -5    1    4    4    0  501 -0.30648729475E+02 -0.29115801251E+02  0.82780267189E+02  0.93068454037E+02  0.47000000000E+01 0.  1.
          1    1    1    2  502    0 -0.92312823656E+01  0.57708633650E+02  0.32471713243E+03  0.32993441631E+03  0.00000000000E+00 0. -1.
          1    1    1    2  503    0  0.39619044440E+02  0.30343816574E+02 -0.49284682748E+03  0.49536694605E+03  0.00000000000E+00 0. -1.
<mgrwt>
<rscale>  0 0.54183191E+02</rscale>
<asrwt>0</asrwt>
<pdfrwt beam="1">  1        2 0.86746135E-01 0.58829237E+02</pdfrwt>
<pdfrwt beam="2">  1        2 0.96427242E-01 0.49904067E+02</pdfrwt>
<totfact> 0.43432898E+02</totfact>
</mgrwt>
</event>
<event>
13    1  0.1595792E-008  0.1357436E+03  0.7546771E-02  0.1335485E+00
         -1   -1    0    0    0  501 -0.00000000000E+00  0.00000000000E+00  0.91143263868E+02  0.91143263868E+02  0.00000000000E+00 0.  1.
          2   -1    0    0  503    0  0.00000000000E+00 -0.00000000000E+00 -0.28788810446E+04  0.28788810446E+04  0.00000000000E+00 0. -1.
         24    2    1    2    0    0  0.29772639337E+02  0.45366571872E+02 -0.11332450489E+03  0.15111751800E+03  0.83961449134E+02 0.  0.
         25    2    1    2    0    0 -0.11094056704E+03 -0.19646197935E+03 -0.69570871199E+03  0.74198306300E+03  0.12499254012E+03 0.  0.
         24    2    1    2    0    0 -0.35309783987E+02  0.31350646166E+02 -0.11996815421E+04  0.12033038717E+04  0.80465902405E+02 0.  0.
        -11    1    3    3    0    0  0.51889450783E+02  0.16402620272E+02 -0.96919192272E+02  0.11115255681E+03  0.00000000000E+00 0.  1.
         12    1    3    3    0    0 -0.22116811447E+02  0.28963951600E+02 -0.16405312620E+02  0.39964961191E+02  0.00000000000E+00 0. -1.
        -13    1    5    5    0    0 -0.50963063569E+02  0.44603792318E+02 -0.71833373241E+03  0.72151928821E+03  0.00000000000E+00 0.  1.
         14    1    5    5    0    0  0.15653279583E+02 -0.13253146151E+02 -0.48134780967E+03  0.48178458353E+03  0.00000000000E+00 0. -1.
          5    1    4    4  502    0  0.83769379686E+01  0.24712543202E+01 -0.13228101754E+03  0.13265231920E+03  0.47000000000E+01 0.  1.
         -5    1    4    4    0  502 -0.11931750501E+03 -0.19893323367E+03 -0.56342769445E+03  0.60933074380E+03  0.47000000000E+01 0.  1.
          1    1    1    2  503    0 -0.70498365356E+01  0.44001272330E+02 -0.71299240232E+03  0.71438363498E+03  0.00000000000E+00 0. -1.
         -2    1    1    2    0  501  0.12352754823E+03  0.75743488986E+02 -0.66030619436E+02  0.15923622075E+03  0.00000000000E+00 0.  1.
<mgrwt>
<rscale>  0 0.77775752E+02</rscale>
<asrwt>0</asrwt>
<pdfrwt beam="2">  1        2 0.42336485E+00 0.44562452E+02</pdfrwt>
<pdfrwt beam="1">  1       -1 0.13403421E-01 0.13574360E+03</pdfrwt>
<totfact> 0.16149689E+02</totfact>
</mgrwt>
</event>
<event>
13    1  0.1595792E-008  0.5801290E+02  0.7546771E-02  0.1451285E+00
         -3   -1    0    0    0  501 -0.00000000000E+00  0.00000000000E+00  0.12037412117E+04  0.12037412117E+04  0.00000000000E+00 0.  1.
          2   -1    0    0  503    0  0.00000000000E+00 -0.00000000000E+00 -0.27951426025E+03  0.27951426025E+03  0.00000000000E+00 0. -1.
         24    2    1    2    0    0  0.18583750321E+02  0.55458059095E+02  0.22528529510E+03  0.24686893733E+03  0.82279134269E+02 0.  0.
         25    2    1    2    0    0  0.40421252319E+02 -0.20243550431E+02  0.21838375295E+03  0.25564765244E+03  0.12498231744E+03 0.  0.
         24    2    1    2    0    0 -0.13027005022E+01  0.42492711308E+02  0.10225736385E+02  0.89919772096E+02  0.78572719097E+02 0.  0.
        -11    1    3    3    0    0  0.45286348117E+02  0.34732760879E+02  0.18832397335E+03  0.19678195278E+03  0.00000000000E+00 0.  1.
         12    1    3    3    0    0 -0.26702597797E+02  0.20725298216E+02  0.36961321748E+02  0.50086984543E+02  0.00000000000E+00 0. -1.
        -11    1    5    5    0    0 -0.31178853972E+02  0.31271099463E+01 -0.14652687588E+02  0.34591921098E+02  0.00000000000E+00 0.  1.
         12    1    5    5    0    0  0.29876153470E+02  0.39365601362E+02  0.24878423974E+02  0.55327850999E+02  0.00000000000E+00 0. -1.
          5    1    4    4  502    0  0.97971253822E+01 -0.69250589625E+02  0.15278890776E+03  0.16810166020E+03  0.47000000000E+01 0. -1.
         -5    1    4    4    0  502  0.30624126937E+02  0.49007039194E+02  0.65594845192E+02  0.87545992239E+02  0.47000000000E+01 0. -1.
          1    1    1    2  503    0 -0.31404140672E+02 -0.26735398126E+02 -0.20699703048E+03  0.21106580063E+03  0.00000000000E+00 0. -1.
         -4    1    1    2    0  501 -0.26298161466E+02 -0.50971821846E+02  0.67732919750E+03  0.67975330944E+03  0.00000000000E+00 0.  1.
<mgrwt>
<rscale>  0 0.48914594E+02</rscale>
<asrwt>0</asrwt>
<pdfrwt beam="2">  1        2 0.41105039E-01 0.41243200E+02</pdfrwt>
<pdfrwt beam="1">  1       -3 0.17702076E+00 0.58012896E+02</pdfrwt>
<totfact> 0.17124583E+01</totfact>
</mgrwt>
</event>
<event>
13    1  0.1595792E-008  0.9263392E+02  0.7546771E-02  0.1429251E+00
          2   -1    0    0  502    0  0.00000000000E+00  0.00000000000E+00  0.27152382789E+03  0.27152382789E+03  0.00000000000E+00 0. -1.
          2   -1    0    0  503    0 -0.00000000000E+00 -0.00000000000E+00 -0.12464800789E+04  0.12464800789E+04  0.00000000000E+00 0. -1.
         24    2    1    2    0    0 -0.24490617292E+02  0.44452617768E+02 -0.24856219518E+03  0.26592950940E+03  0.79746558139E+02 0.  0.
         25    2    1    2    0    0 -0.72107839043E+02  0.14863910667E+03 -0.10933250524E+03  0.23424393505E+03  0.12499399955E+03 0.  0.
         24    2    1    2    0    0  0.11280404819E+03 -0.67058487387E+02 -0.25414365090E+02  0.15814282879E+03  0.84508403881E+02 0.  0.
        -13    1    3    3    0    0 -0.48187100323E+02  0.91680065419E+01 -0.99618967482E+02  0.11104047759E+03  0.00000000000E+00 0.  1.
         14    1    3    3    0    0  0.23696483031E+02  0.35284611227E+02 -0.14894322770E+03  0.15488903181E+03  0.00000000000E+00 0. -1.
        -13    1    5    5    0    0  0.59350426792E+02 -0.81263979030E+02 -0.13090078608E+02  0.10147737485E+03  0.00000000000E+00 0.  1.
         14    1    5    5    0    0  0.53453621394E+02  0.14205491643E+02 -0.12324286482E+02  0.56665453940E+02  0.00000000000E+00 0. -1.
          5    1    4    4  501    0 -0.74660897061E+02  0.16948613168E+03 -0.93454484918E+02  0.20749850393E+03  0.47000000000E+01 0.  1.
         -5    1    4    4    0  501  0.25530580178E+01 -0.20847025005E+02 -0.15878020320E+02  0.26745431125E+02  0.47000000000E+01 0.  1.
          1    1    1    2  502    0  0.21856248730E+02 -0.21202223019E+02  0.12793762006E+03  0.13151146146E+03  0.00000000000E+00 0. -1.
          1    1    1    2  503    0 -0.38061840580E+02 -0.10483101403E+03 -0.71958480552E+03  0.72817617205E+03  0.00000000000E+00 0. -1.
<mgrwt>
<rscale>  0 0.53110682E+02</rscale>
<asrwt>0</asrwt>
<pdfrwt beam="1">  1        2 0.39929976E-01 0.30450449E+02</pdfrwt>
<pdfrwt beam="2">  1        2 0.18330589E+00 0.92633922E+02</pdfrwt>
<totfact> 0.41655477E+02</totfact>
</mgrwt>
</event>
<event>
13    1  0.1595792E-008  0.5338931E+02  0.7546771E-02  0.1555885E+00
          2   -1    0    0  502    0  0.00000000000E+00  0.00000000000E+00  0.33119451884E+04  0.33119451884E+04  0.00000000000E+00 0. -1.
          2   -1    0    0  503    0 -0.00000000000E+00 -0.00000000000E+00 -0.11311871009E+04  0.11311871009E+04  0.00000000000E+00 0. -1.
         24    2    1    2    0    0 -0.49769005638E+01  0.45007647884E+02 -0.16941856349E+03  0.19272244333E+03  0.79930173265E+02 0.  0.
         25    2    1    2    0    0  0.95252455321E+01 -0.84884737516E+02 -0.23842936322E+02  0.15325814012E+03  0.12499369159E+03 0.  0.
         24    2    1    2    0    0 -0.36163283882E+02  0.49705543287E+02 -0.86482188234E+02  0.13428242137E+03  0.82305380588E+02 0.  0.
        -11    1    3    3    0    0 -0.38092508808E+02  0.43318499923E+02 -0.12088775321E+03  0.13394543867E+03  0.00000000000E+00 0.  1.
         12    1    3    3    0    0  0.33115608244E+02  0.16891479608E+01 -0.48530810280E+02  0.58777004659E+02  0.00000000000E+00 0. -1.
        -13    1    5    5    0    0  0.55844949384E+01  0.59541387098E+02 -0.52019388997E+02  0.79261467264E+02  0.00000000000E+00 0.  1.
         14    1    5    5    0    0 -0.41747778820E+02 -0.98358438110E+01 -0.34462799237E+02  0.55020954110E+02  0.00000000000E+00 0. -1.
          5    1    4    4  501    0 -0.34984829540E+02 -0.31273476516E+02 -0.58623673732E+02  0.75238246612E+02  0.47000000000E+01 0.  1.
         -5    1    4    4    0  501  0.44510075072E+02 -0.53611261000E+02  0.34780737410E+02  0.78019893512E+02  0.47000000000E+01 0.  1.
          1    1    1    2  502    0  0.53105220661E+02 -0.56177553914E+01  0.32113038894E+04  0.32117478720E+04  0.00000000000E+00 0. -1.
          1    1    1    2  503    0 -0.21490281747E+02 -0.42106982641E+01 -0.75080211377E+03  0.75112141244E+03  0.00000000000E+00 0. -1.
<mgrwt>
<rscale>  0 0.34193094E+02</rscale>
<asrwt>0</asrwt>
<pdfrwt beam="1">  1        2 0.48705076E+00 0.53389314E+02</pdfrwt>
<pdfrwt beam="2">  1        2 0.16635104E+00 0.21898908E+02</pdfrwt>
<totfact> 0.92206092E+00</totfact>
</mgrwt>
</event>
<event>
13    1  0.1595792E-008  0.4724363E+02  0.7546771E-02  0.1532165E+00
          2   -1    0    0  502    0  0.00000000000E+00  0.00000000000E+00  0.16983056460E+04  0.16983056460E+04  0.00000000000E+00 0. -1.
          2   -1    0    0  503    0 -0.00000000000E+00 -0.00000000000E+00 -0.68382285664E+03  0.68382285664E+03  0.00000000000E+00 0. -1.
         24    2    1    2    0    0 -0.63187515901E+01 -0.88599989657E+00 -0.51705399756E+01  0.80819762533E+02  0.80401417368E+02 0.  0.
         25    2    1    2    0    0 -0.51805177971E+02  0.20446712336E+02  0.74450060714E+03  0.75697205317E+03  0.12499476286E+03 0.  0.
         24    2    1    2    0    0  0.53396985056E+02 -0.55345142652E+02  0.63281179519E+03  0.64263697393E+03  0.81346108085E+02 0.  0.
        -11    1    5    5    0    0  0.35503842090E+02 -0.64738928810E+02  0.29074897863E+03  0.29997769964E+03  0.00000000000E+00 0.  1.
         12    1    5    5    0    0  0.17893142966E+02  0.93937861586E+01  0.34206281655E+03  0.34265927428E+03  0.00000000000E+00 0. -1.
        -11    1    3    3    0    0 -0.37405374609E+02  0.15762995752E+02  0.10955139770E+02  0.42043420080E+02  0.00000000000E+00 0.  1.
         12    1    3    3    0    0  0.31086623018E+02 -0.16648995648E+02 -0.16125679745E+02  0.38776342453E+02  0.00000000000E+00 0. -1.
          5    1    4    4  501    0 -0.29325123418E+02  0.70911997699E+02  0.33339689441E+03  0.34214624575E+03  0.47000000000E+01 0. -1.
         -5    1    4    4    0  501 -0.22480054554E+02 -0.50465285363E+02  0.41110371273E+03  0.41482580742E+03  0.47000000000E+01 0. -1.
          1    1    1    2  502    0 -0.28752651165E+02  0.24351655462E+01  0.27036490605E+03  0.27190039979E+03  0.00000000000E+00 0. -1.
          1    1    1    2  503    0  0.33479595671E+02  0.33349264666E+02 -0.62802397901E+03  0.62979931327E+03  0.00000000000E+00 0. -1.
<mgrwt>
<rscale>  0 0.36922118E+02</rscale>
<asrwt>0</asrwt>
<pdfrwt beam="1">  1        2 0.24975083E+00 0.28855588E+02</pdfrwt>
<pdfrwt beam="2">  1        2 0.10056219E+00 0.47243631E+02</pdfrwt>
<totfact> 0.10706571E+02</totfact>
</mgrwt>
</event>
<event>
13    1  0.1595792E-008  0.5059912E+02  0.7546771E-02  0.1475974E+00
          4   -1    0    0  503    0 -0.00000000000E+00  0.00000000000E+00  0.17985198952E+04  0.17985198952E+04  0.00000000000E+00 0. -1.
          2   -1    0    0  502    0  0.00000000000E+00 -0.00000000000E+00 -0.94559435165E+03  0.94559435165E+03  0.00000000000E+00 0. -1.
         24    2    1    2    0    0 -0.21074801267E+02 -0.88011269544E+02  0.39450067333E+03  0.41280441354E+03  0.81157696865E+02 0.  0.
         25    2    1    2    0    0  0.23379189153E+01  0.54359949331E+02  0.26407416681E+03  0.29718887686E+03  0.12500237195E+03 0.  0.
         24    2    1    2    0    0  0.11127929994E+02  0.25178635654E+02 -0.15585423595E+02  0.85304093186E+02  0.79221766998E+02 0.  0.
        -11    1    5    5    0    0  0.15819045550E+02  0.48829906901E+02 -0.27693567368E+02  0.58322685840E+02  0.00000000000E+00 0.  1.
         12    1    5    5    0    0 -0.46911155564E+01 -0.23651271247E+02  0.12108143772E+02  0.26981407346E+02  0.00000000000E+00 0. -1.
        -11    1    3    3    0    0  0.44573100933E+01  0.13148649551E+02  0.86639656199E+02  0.87744997719E+02  0.00000000000E+00 0.  1.
         12    1    3    3    0    0 -0.25532111360E+02 -0.10115991909E+03  0.30786101714E+03  0.32505941582E+03  0.00000000000E+00 0. -1.
          5    1    4    4  501    0 -0.19369048126E+02  0.68739468205E+02  0.66004844707E+02  0.97360176866E+02  0.47000000000E+01 0.  1.
         -5    1    4    4    0  501  0.21706967042E+02 -0.14379518874E+02  0.19806932210E+03  0.19982869999E+03  0.47000000000E+01 0.  1.
          1    1    1    2  502    0  0.40800839832E+02  0.29994326378E+02 -0.86834000026E+03  0.86981533914E+03  0.00000000000E+00 0. -1.
          3    1    1    2  503    0 -0.33191887475E+02 -0.21521641819E+02  0.10782761272E+04  0.10790015241E+04  0.00000000000E+00 0. -1.
<mgrwt>
<rscale>  0 0.44739583E+02</rscale>
<asrwt>0</asrwt>
<pdfrwt beam="2">  1        2 0.13905799E+00 0.50599124E+02</pdfrwt>
<pdfrwt beam="1">  1        4 0.26448822E+00 0.39558595E+02</pdfrwt>
<totfact> 0.11056477E+00</totfact>
</mgrwt>
</event>
<event>
13    1  0.1595792E-008  0.1587939E+03  0.7546771E-02  0.1228903E+00
          2   -1    0    0  503    0  0.00000000000E+00  0.00000000000E+00  0.12353654848E+04  0.12353654848E+04  0.00000000000E+00 0. -1.
          2   -1    0    0  502    0 -0.00000000000E+00 -0.00000000000E+00 -0.21177026684E+04  0.21177026684E+04  0.00000000000E+00 0. -1.
         24    2    1    2    0    0 -0.35595955151E+02 -0.70129459743E+02 -0.58154358503E+03  0.59253257372E+03  0.81955454261E+02 0.  0.
         25    2    1    2    0    0 -0.67089369039E+02 -0.48923803947E+02 -0.75499054110E+03  0.76975846907E+03  0.12499144578E+03 0.  0.
         24    2    1    2    0    0  0.28129238739E+03 -0.42571757254E+02  0.27369616160E+03  0.40286019529E+03  0.80305581101E+02 0.  0.
        -13    1    3    3    0    0 -0.31614301808E+02 -0.88467706191E+02 -0.50924908535E+03  0.51784228299E+03  0.00000000000E+00 0.  1.
         14    1    3    3    0    0 -0.39816533428E+01  0.18338246448E+02 -0.72294499679E+02  0.74690290735E+02  0.00000000000E+00 0. -1.
        -13    1    5    5    0    0  0.21865759472E+03 -0.60246602642E+02  0.23745835714E+03  0.32837062633E+03  0.00000000000E+00 0.  1.
         14    1    5    5    0    0  0.62634792670E+02  0.17674845388E+02  0.36237804457E+02  0.74489568962E+02  0.00000000000E+00 0. -1.
          5    1    4    4  501    0  0.24834226762E+02 -0.40890660367E+02 -0.14376182223E+03  0.15158606946E+03  0.47000000000E+01 0. -1.
         -5    1    4    4    0  501 -0.91923595801E+02 -0.80331435804E+01 -0.61122871887E+03  0.61817239961E+03  0.47000000000E+01 0. -1.
          1    1    1    2  502    0 -0.10238749027E+03  0.22565043023E+02 -0.69262094112E+03  0.70051134709E+03  0.00000000000E+00 0. -1.
          1    1    1    2  503    0 -0.76219572925E+02  0.13905997792E+03  0.87312172200E+03  0.88740556804E+03  0.00000000000E+00 0. -1.
<mgrwt>
<rscale>  0 0.12902974E+03</rscale>
<asrwt>0</asrwt>
<pdfrwt beam="1">  1        2 0.18167139E+00 0.15879388E+03</pdfrwt>
<pdfrwt beam="2">  1        2 0.31142687E+00 0.10484455E+03</pdfrwt>
<totfact> 0.26433232E+01</totfact>
</mgrwt>
</event>
<event>
13    1  0.1595792E-008  0.8990421E+02  0.7546771E-02  0.1411686E+00
          2   -1    0    0  503    0  0.00000000000E+00  0.00000000000E+00  0.70630454278E+03  0.70630454278E+03  0.00000000000E+00 0. -1.
          2   -1    0    0  502    0 -0.00000000000E+00 -0.00000000000E+00 -0.73888215737E+03  0.73888215737E+03  0.00000000000E+00 0. -1.
         24    2    1    2    0    0 -0.50674214664E+02 -0.91887824647E+02 -0.11302678075E+03  0.17391144529E+03  0.80367215237E+02 0.  0.
         25    2    1    2    0    0 -0.20762996194E+03  0.10525283620E+03 -0.13930694984E+03  0.29869762882E+03  0.12500194624E+03 0.  0.
         24    2    1    2    0    0  0.18678855133E+03  0.64998895533E+01 -0.14103027365E+03  0.24785095619E+03  0.81291739607E+02 0.  0.
        -11    1    3    3    0    0  0.17784933059E+02 -0.11103437480E+02 -0.29534555567E+01  0.21173404722E+02  0.00000000000E+00 0.  1.
         12    1    3    3    0    0 -0.68459147723E+02 -0.80784387166E+02 -0.11007332519E+03  0.15273804056E+03  0.00000000000E+00 0. -1.
        -13    1    5    5    0    0  0.58748673878E+01 -0.33653720336E+01  0.99312316033E+01  0.12019532308E+02  0.00000000000E+00 0.  1.
         14    1    5    5    0    0  0.18091368394E+03  0.98652615869E+01 -0.15096150525E+03  0.23583142388E+03  0.00000000000E+00 0. -1.
          5    1    4    4  501    0 -0.19328947306E+03  0.78786957186E+02 -0.65446035886E+02  0.21880008828E+03  0.47000000000E+01 0.  1.
         -5    1    4    4    0  501 -0.14340488881E+02  0.26465879018E+02 -0.73860913959E+02  0.79897540541E+02  0.47000000000E+01 0.  1.
          1    1    1    2  502    0  0.81261601159E+00  0.35900581448E+02 -0.17641383733E+03  0.18003153638E+03  0.00000000000E+00 0. -1.
          1    1    1    2  503    0  0.70703009262E+02 -0.55765482559E+02  0.53720022698E+03  0.54469513347E+03  0.00000000000E+00 0. -1.
<mgrwt>
<rscale>  0 0.56819365E+02</rscale>
<asrwt>0</asrwt>
<pdfrwt beam="1">  1        2 0.10386832E+00 0.89904212E+02</pdfrwt>
<pdfrwt beam="2">  1        2 0.10865914E+00 0.35909777E+02</pdfrwt>
<totfact> 0.31086693E+02</totfact>
</mgrwt>
</event>
<event>
13    1  0.1595792E-008  0.2040804E+03  0.7546771E-02  0.1244595E+00
          2   -1    0    0  502    0  0.00000000000E+00  0.00000000000E+00  0.18266722335E+04  0.18266722335E+04  0.00000000000E+00 0. -1.
          2   -1    0    0  503    0 -0.00000000000E+00 -0.00000000000E+00 -0.41176028129E+04  0.41176028129E+04  0.00000000000E+00 0. -1.
         24    2    1    2    0    0 -0.42013686602E+02 -0.67182620743E+02 -0.21461991996E+03  0.24659700257E+03  0.92031066693E+02 0.  0.
         25    2    1    2    0    0 -0.39564574757E+02 -0.14157992465E+03 -0.30698154825E+02  0.19538803912E+03  0.12499551385E+03 0.  0.
         24    2    1    2    0    0  0.56096371410E+02  0.74217143865E+02  0.43377818144E+03  0.45078040237E+03  0.79902898200E+02 0.  0.
        -11    1    5    5    0    0  0.48140867999E+01  0.32992563315E+02  0.29842513672E+03  0.30028194567E+03  0.00000000000E+00 0.  1.
         12    1    5    5    0    0  0.51282284610E+02  0.41224580550E+02  0.13535304472E+03  0.15049845670E+03  0.00000000000E+00 0. -1.
        -11    1    3    3    0    0 -0.57715212151E+02 -0.71638953928E+02 -0.12334300821E+03  0.15387229480E+03  0.00000000000E+00 0.  1.
         12    1    3    3    0    0  0.15701525549E+02  0.44563331843E+01 -0.91276911759E+02  0.92724707766E+02  0.00000000000E+00 0. -1.
          5    1    4    4  501    0 -0.70971204828E+02 -0.60489611437E+02 -0.50394289666E+02  0.10610174097E+03  0.47000000000E+01 0.  1.
         -5    1    4    4    0  501  0.31406630071E+02 -0.81090313209E+02  0.19696134841E+02  0.89286298145E+02  0.47000000000E+01 0.  1.
          1    1    1    2  502    0 -0.42686079651E+01 -0.69370980961E+02  0.12822981516E+04  0.12841803236E+04  0.00000000000E+00 0. -1.
          1    1    1    2  503    0  0.29750497914E+02  0.20391638248E+03 -0.37616888377E+04  0.37673292787E+04  0.00000000000E+00 0. -1.
<mgrwt>
<rscale>  0 0.11909675E+03</rscale>
<asrwt>0</asrwt>
<pdfrwt beam="1">  1        2 0.26862827E+00 0.69502187E+02</pdfrwt>
<pdfrwt beam="2">  1        2 0.60552982E+00 0.20408042E+03</pdfrwt>
<totfact> 0.95135456E-01</totfact>
</mgrwt>
</event>
<event>
13    1  0.1595792E-008  0.9226440E+02  0.7546771E-02  0.1335975E+00
          2   -1    0    0  503    0  0.00000000000E+00  0.00000000000E+00  0.32277195962E+04  0.32277195962E+04  0.00000000000E+00 0. -1.
          2   -1    0    0  502    0 -0.00000000000E+00 -0.00000000000E+00 -0.40262956853E+04  0.40262956853E+04  0.00000000000E+00 0. -1.
         24    2    1    2    0    0 -0.99625087610E+02  0.84436870190E+02 -0.16211331091E+04  0.16283443499E+04  0.79862514691E+02 0.  0.
         25    2    1    2    0    0  0.14996360620E+03 -0.19372408166E+03 -0.64363796077E+02  0.28246350897E+03  0.12499933061E+03 0.  0.
         24    2    1    2    0    0 -0.64817857328E+02  0.68138466084E+02  0.40928571459E+03  0.42325210905E+03  0.52757430342E+02 0.  0.
        -11    1    5    5    0    0 -0.59023889390E+02  0.68641856072E+02  0.40709177712E+03  0.41703625612E+03  0.00000000000E+00 0.  1.
         12    1    5    5    0    0 -0.57939679381E+01 -0.50338998855E+00  0.21939374727E+01  0.62158529247E+01  0.00000000000E+00 0. -1.
        -11    1    3    3    0    0 -0.84120713724E+02  0.25839926384E+02 -0.11433944902E+04  0.11467758964E+04  0.00000000000E+00 0.  1.
         12    1    3    3    0    0 -0.15504373886E+02  0.58596943806E+02 -0.47773861886E+03  0.48156845347E+03  0.00000000000E+00 0. -1.
          5    1    4    4  501    0  0.13229909267E+03 -0.13652400463E+03  0.56158735057E+01  0.19025110196E+03  0.47000000000E+01 0.  1.
         -5    1    4    4    0  501  0.17664513521E+02 -0.57200077039E+02 -0.69979669583E+02  0.92212407007E+02  0.47000000000E+01 0.  1.
          1    1    1    2  502    0  0.79495134667E+02  0.47042239722E+02 -0.22198046491E+04  0.22217257097E+04  0.00000000000E+00 0. -1.
          1    1    1    2  503    0 -0.65015795925E+02 -0.58934943315E+01  0.26974397506E+04  0.26982296039E+04  0.00000000000E+00 0. -1.
<mgrwt>
<rscale>  0 0.77609524E+02</rscale>
<asrwt>0</asrwt>
<pdfrwt beam="1">  1        2 0.47466465E+00 0.65282364E+02</pdfrwt>
<pdfrwt beam="2">  1        2 0.59210231E+00 0.92264402E+02</pdfrwt>
<totfact> 0.26272208E-01</totfact>
</mgrwt>
</event>
<event>
13    1  0.1595792E-008  0.1351266E+03  0.7546771E-02  0.1299646E+00
          2   -1    0    0  503    0  0.00000000000E+00  0.00000000000E+00  0.32514993682E+04  0.32514993682E+04  0.00000000000E+00 0. -1.
          2   -1    0    0  502    0 -0.00000000000E+00 -0.00000000000E+00 -0.88887297828E+03  0.88887297828E+03  0.00000000000E+00 0. -1.
         24    2    1    2    0    0 -0.12175333124E+02  0.41251493041E+02 -0.19877151698E+03  0.21868358319E+03  0.80389484257E+02 0.  0.
         25    2    1    2    0    0 -0.72224515985E+02 -0.39256399584E+02 -0.54525374260E+02  0.15923770825E+03  0.12500474260E+03 0.  0.
         24    2    1    2    0    0 -0.16686202965E+01 -0.90228010761E+02  0.27221797574E+03  0.29759181578E+03  0.79463100143E+02 0.  0.
        -11    1    3    3    0    0 -0.41609484159E+00  0.34855672515E+02 -0.21601782759E+02  0.41008877816E+02  0.00000000000E+00 0.  1.
         12    1    3    3    0    0 -0.11759238282E+02  0.63958205256E+01 -0.17716973422E+03  0.17767470537E+03  0.00000000000E+00 0. -1.
        -11    1    5    5    0    0 -0.47441886083E+01 -0.10490099637E+03  0.24405934691E+03  0.26569096932E+03  0.00000000000E+00 0.  1.
         12    1    5    5    0    0  0.30755683118E+01  0.14672985611E+02  0.28158628829E+02  0.31900846457E+02  0.00000000000E+00 0. -1.
          5    1    4    4  501    0 -0.73430672634E+02 -0.14665427026E+02 -0.89132632921E+02  0.11650688686E+03  0.47000000000E+01 0. -1.
         -5    1    4    4    0  501  0.12061566491E+01 -0.24590972558E+02  0.34607258661E+02  0.42730821397E+02  0.47000000000E+01 0. -1.
          1    1    1    2  502    0  0.45413311952E+02 -0.41823599183E+02 -0.55727302724E+03  0.56068244955E+03  0.00000000000E+00 0. -1.
          1    1    1    2  503    0  0.40655157453E+02  0.13005651649E+03  0.29009783326E+04  0.29041767897E+04  0.00000000000E+00 0. -1.
<mgrwt>
<rscale>  0 0.91337013E+02</rscale>
<asrwt>0</asrwt>
<pdfrwt beam="1">  1        2 0.47816167E+00 0.13512663E+03</pdfrwt>
<pdfrwt beam="2">  1        2 0.13071662E+00 0.61738014E+02</pdfrwt>
<totfact> 0.10907624E+01</totfact>
</mgrwt>
</event>
<event>
13    1  0.1595792E-008  0.1439106E+02  0.7546771E-02  0.1935977E+00
          2   -1    0    0  503    0  0.00000000000E+00  0.00000000000E+00  0.15118386644E+04  0.15118386644E+04  0.00000000000E+00 0. -1.
         -1   -1    0    0    0  501 -0.00000000000E+00 -0.00000000000E+00 -0.14491603473E+04  0.14491603473E+04  0.00000000000E+00 0.  1.
         24    2    1    2    0    0 -0.46711007061E+03  0.45579461992E+03 -0.42703523620E+03  0.78501037233E+03  0.89115868887E+02 0.  0.
         25    2    1    2    0    0  0.12851211512E+03 -0.63334599150E+03  0.11966813062E+03  0.66902067634E+03  0.12500278075E+03 0.  0.
         24    2    1    2    0    0  0.35158335491E+03  0.19266394823E+03  0.88725513118E+02  0.41919196199E+03  0.84376726216E+02 0.  0.
        -13    1    5    5    0    0  0.18840642735E+03  0.15026690496E+03  0.56932789575E+02  0.24762565926E+03  0.00000000000E+00 0.  1.
         14    1    5    5    0    0  0.16317692755E+03  0.42397043268E+02  0.31792723543E+02  0.17156630274E+03  0.00000000000E+00 0. -1.
        -13    1    3    3    0    0 -0.34743851730E+03  0.38906268798E+03 -0.34252688045E+03  0.62402561030E+03  0.00000000000E+00 0.  1.
         14    1    3    3    0    0 -0.11967155332E+03  0.66731931946E+02 -0.84508355753E+02  0.16098476203E+03  0.00000000000E+00 0. -1.
          5    1    4    4  502    0  0.43675101326E+02 -0.48717950993E+03  0.90283307642E+02  0.49741788770E+03  0.47000000000E+01 0.  1.
         -5    1    4    4    0  502  0.84837013794E+02 -0.14616648157E+03  0.29384822981E+02  0.17160278863E+03  0.47000000000E+01 0.  1.
          1    1    1    2  503    0 -0.11720577715E+02 -0.77748290440E+00  0.68436914216E+03  0.68446994029E+03  0.00000000000E+00 0. -1.
         -2    1    1    2    0  501 -0.12648216967E+01 -0.14335093744E+02 -0.40304923259E+03  0.40330606067E+03  0.00000000000E+00 0.  1.
<mgrwt>
<rscale>  0 0.13001627E+02</rscale>
<asrwt>0</asrwt>
<pdfrwt beam="1">  1        2 0.22232921E+00 0.11746337E+02</pdfrwt>
<pdfrwt beam="2">  1       -1 0.21311182E+00 0.14391065E+02</pdfrwt>
<totfact> 0.39790157E+00</totfact>
</mgrwt>
</event>
<event>
13    1  0.1595792E-008  0.1113566E+03  0.7546771E-02  0.1291580E+00
          2   -1    0    0  503    0  0.00000000000E+00  0.00000000000E+00  0.29860853670E+04  0.29860853670E+04  0.00000000000E+00 0. -1.
          2   -1    0    0  502    0 -0.00000000000E+00 -0.00000000000E+00 -0.22620924853E+04  0.22620924853E+04  0.00000000000E+00 0. -1.
         24    2    1    2    0    0 -0.27618378537E+03 -0.19855073957E+03 -0.89421608903E+03  0.96030590637E+03  0.82856143157E+02 0.  0.
         25    2    1    2    0    0  0.18799813856E+03  0.14496718918E+03  0.68334492092E+03  0.73412783457E+03  0.12499844198E+03 0.  0.
         24    2    1    2    0    0 -0.11504654315E+02  0.10739080880E+03  0.88434487100E+02  0.16214008394E+03  0.82483970716E+02 0.  0.
        -11    1    3    3    0    0 -0.12558125901E+03 -0.53357986045E+02 -0.28071732920E+03  0.31212168493E+03  0.00000000000E+00 0.  1.
         12    1    3    3    0    0 -0.15060252635E+03 -0.14519275352E+03 -0.61349875983E+03  0.64818422145E+03  0.00000000000E+00 0. -1.
        -13    1    5    5    0    0 -0.98200613517E+01  0.80409652456E+02  0.13045689905E+02  0.82050812538E+02  0.00000000000E+00 0.  1.
         14    1    5    5    0    0 -0.16845929629E+01  0.26981156349E+02  0.75388797195E+02  0.80089271403E+02  0.00000000000E+00 0. -1.
          5    1    4    4  501    0  0.74689998373E+02  0.62025012860E+02  0.46081995920E+03  0.47095947053E+03  0.47000000000E+01 0. -1.
         -5    1    4    4    0  501  0.11330814018E+03  0.82942176317E+02  0.22252496172E+03  0.26316836404E+03  0.47000000000E+01 0. -1.
          1    1    1    2  502    0 -0.85128609428E+01 -0.80290341234E+02 -0.12698401725E+04  0.12724044449E+04  0.00000000000E+00 0. -1.
          1    1    1    2  503    0  0.10820316207E+03  0.26483082819E+02  0.21162697353E+04  0.21191995825E+04  0.00000000000E+00 0. -1.
<mgrwt>
<rscale>  0 0.94820724E+02</rscale>
<asrwt>0</asrwt>
<pdfrwt beam="1">  1        2 0.43913020E+00 0.11135655E+03</pdfrwt>
<pdfrwt beam="2">  1        2 0.33266066E+00 0.80740372E+02</pdfrwt>
<totfact> 0.31650533E+00</totfact>
</mgrwt>
</event>
<event>
13    1  0.1595792E-008  0.1151218E+03  0.7546771E-02  0.1368483E+00
         -3   -1    0    0    0  502 -0.00000000000E+00  0.00000000000E+00  0.69784079114E+03  0.69784079114E+03  0.00000000000E+00 0.  1.
         -1   -1    0    0    0  501  0.00000000000E+00 -0.00000000000E+00 -0.11032967999E+04  0.11032967999E+04  0.00000000000E+00 0.  1.
         24    2    1    2    0    0 -0.17686254169E+03  0.22471146520E+03  0.20230392813E+03  0.35954942002E+03  0.81075920311E+02 0.  0.
         25    2    1    2    0    0  0.11438687716E+03  0.32308938290E+02 -0.30031161913E+03  0.34632361680E+03  0.12499901524E+03 0.  0.
         24    2    1    2    0    0  0.30526149637E+02 -0.14253608469E+03 -0.47158547262E+03  0.50026606192E+03  0.81393448586E+02 0.  0.
        -11    1    5    5    0    0  0.45049296914E+02 -0.67271233965E+02 -0.15908557419E+03  0.17850231928E+03  0.00000000000E+00 0.  1.
         12    1    5    5    0    0 -0.14523147278E+02 -0.75264850721E+02 -0.31249989843E+03  0.32176374264E+03  0.00000000000E+00 0. -1.
        -13    1    3    3    0    0 -0.10729243672E+03  0.15364867316E+03  0.85041662488E+02  0.20579520427E+03  0.00000000000E+00 0.  1.
         14    1    3    3    0    0 -0.69570104974E+02  0.71062792040E+02  0.11726226564E+03  0.15375421575E+03  0.00000000000E+00 0. -1.
          5    1    4    4  503    0  0.84661620913E+02  0.29907532126E+01 -0.63921828668E+02  0.10622911484E+03  0.47000000000E+01 0.  1.
         -5    1    4    4    0  503  0.29725256248E+02  0.29318185077E+02 -0.23638979046E+03  0.24009450196E+03  0.47000000000E+01 0.  1.
         -2    1    1    2    0  501 -0.34158395737E+02 -0.20199973078E+02 -0.20474796346E+03  0.20855829749E+03  0.00000000000E+00 0.  1.
         -4    1    1    2    0  502  0.66107910632E+02 -0.94284345727E+02  0.36888511828E+03  0.38644019484E+03  0.00000000000E+00 0.  1.
<mgrwt>
<rscale>  0 0.67590784E+02</rscale>
<asrwt>0</asrwt>
<pdfrwt beam="2">  1       -1 0.16224953E+00 0.39684190E+02</pdfrwt>
<pdfrwt beam="1">  1       -3 0.10262365E+00 0.11512177E+03</pdfrwt>
<totfact> 0.13653258E+00</totfact>
</mgrwt>
</event>
<event>
13    1  0.1595792E-008  0.2831023E+03  0.7546771E-02  0.1406630E+00
          2   -1    0    0  502    0  0.00000000000E+00  0.00000000000E+00  0.64961204572E+03  0.64961204572E+03  0.00000000000E+00 0. -1.
          2   -1    0    0  503    0 -0.00000000000E+00 -0.00000000000E+00 -0.13117327064E+04  0.13117327064E+04  0.00000000000E+00 0. -1.
         24    2    1    2    0    0  0.13063625891E+03  0.79456429011E+01 -0.11091344127E+03  0.18930384373E+03  0.80032421002E+02 0.  0.
         25    2    1    2    0    0 -0.33212257828E+03  0.62249397470E+02 -0.60169688094E+03  0.70131036593E+03  0.12496678896E+03 0.  0.
         24    2    1    2    0    0 -0.66024748197E+02 -0.51300019037E+02 -0.35623594117E+02  0.12201207211E+03  0.81406056014E+02 0.  0.
        -11    1    5    5    0    0 -0.55664012384E+02  0.22846498519E+01  0.19611396350E+01  0.55745385175E+02  0.00000000000E+00 0.  1.
         12    1    5    5    0    0 -0.10360735813E+02 -0.53584668889E+02 -0.37584733752E+02  0.66266686938E+02  0.00000000000E+00 0. -1.
        -13    1    3    3    0    0  0.55090393984E+02 -0.10243388578E+02 -0.27236086795E+01  0.56100771502E+02  0.00000000000E+00 0.  1.
         14    1    3    3    0    0  0.75545864931E+02  0.18189031479E+02 -0.10818983259E+03  0.13320307223E+03  0.00000000000E+00 0. -1.
          5    1    4    4  501    0 -0.28978283552E+02  0.56735932850E+01 -0.59811993206E+01  0.30492545379E+02  0.47000000000E+01 0. -1.
         -5    1    4    4    0  501 -0.30314429473E+03  0.56575804185E+02 -0.59571568162E+03  0.67081782055E+03  0.47000000000E+01 0. -1.
          1    1    1    2  502    0  0.27936149470E+03 -0.19445971585E+02  0.47942918104E+03  0.55522367580E+03  0.00000000000E+00 0. -1.
          1    1    1    2  503    0 -0.11850427137E+02  0.55095025055E+00 -0.39331592537E+03  0.39349479452E+03  0.00000000000E+00 0. -1.
<mgrwt>
<rscale>  0 0.57952632E+02</rscale>
<asrwt>0</asrwt>
<pdfrwt beam="1">  1        2 0.95531184E-01 0.28310235E+03</pdfrwt>
<pdfrwt beam="2">  1        2 0.19290187E+00 0.11863228E+02</pdfrwt>
<totfact> 0.17559536E+02</totfact>
</mgrwt>
</event>
<event>
13    1  0.1595792E-008  0.3905031E+02  0.7546771E-02  0.1564988E+00
         -1   -1    0    0    0  501 -0.00000000000E+00  0.00000000000E+00  0.29826424223E+03  0.29826424223E+03  0.00000000000E+00 0.  1.
          2   -1    0    0  503    0  0.00000000000E+00 -0.00000000000E+00 -0.39807490781E+04  0.39807490781E+04  0.00000000000E+00 0. -1.
         24    2    1    2    0    0  0.18743154403E+03 -0.90805795447E+02  0.83711325017E+02  0.23849018814E+03  0.80583544959E+02 0.  0.
         25    2    1    2    0    0 -0.22205527974E+03  0.64697889387E+02 -0.26483986368E+03  0.37317475223E+03  0.12499951262E+03 0.  0.
         24    2    1    2    0    0  0.15159652698E+00  0.14557340973E+01 -0.48401566600E+03  0.49069852605E+03  0.80695330658E+02 0.  0.
        -13    1    5    5    0    0  0.25373140642E+02  0.15427833524E+02 -0.41281023410E+03  0.41387691852E+03  0.00000000000E+00 0.  1.
         14    1    5    5    0    0 -0.25221544115E+02 -0.13972099427E+02 -0.71205431901E+02  0.76821607521E+02  0.00000000000E+00 0. -1.
        -13    1    3    3    0    0  0.16558921573E+03 -0.74376887557E+02  0.99417486305E+02  0.20696750071E+03  0.00000000000E+00 0.  1.
         14    1    3    3    0    0  0.21842328300E+02 -0.16428907890E+02 -0.15706161289E+02  0.31522687425E+02  0.00000000000E+00 0. -1.
          5    1    4    4  502    0 -0.23682695436E+03  0.51191765970E+02 -0.24463732754E+03  0.34435027986E+03  0.47000000000E+01 0.  1.
         -5    1    4    4    0  502  0.14771674619E+02  0.13506123417E+02 -0.20202536133E+02  0.28824472363E+02  0.47000000000E+01 0.  1.
          1    1    1    2  503    0  0.24959138462E+02 -0.13259189743E+02 -0.30921317946E+04  0.30922609527E+04  0.00000000000E+00 0. -1.
         -2    1    1    2    0  501  0.95130007250E+01  0.37911361706E+02  0.74791163361E+02  0.84388901202E+02  0.00000000000E+00 0.  1.
<mgrwt>
<rscale>  0 0.33221327E+02</rscale>
<asrwt>0</asrwt>
<pdfrwt beam="2">  1        2 0.58540426E+00 0.28262426E+02</pdfrwt>
<pdfrwt beam="1">  1       -1 0.43862390E-01 0.39050312E+02</pdfrwt>
<totfact> 0.60712287E+00</totfact>
</mgrwt>
</event>
<event>
13    1  0.1595792E-008  0.1253603E+03  0.7546771E-02  0.1452581E+00
          2   -1    0    0  502    0  0.00000000000E+00  0.00000000000E+00  0.15372277180E+04  0.15372277180E+04  0.00000000000E+00 0. -1.
          2   -1    0    0  503    0 -0.00000000000E+00 -0.00000000000E+00 -0.23239519192E+04  0.23239519192E+04  0.00000000000E+00 0. -1.
         24    2    1    2    0    0  0.40180112871E+02  0.29366547275E+02 -0.24779723775E+02  0.97380386745E+02  0.79950418655E+02 0.  0.
         25    2    1    2    0    0  0.19008991114E+02 -0.58828910055E+02 -0.78284900905E+02  0.15992316975E+03  0.12499884844E+03 0.  0.
         24    2    1    2    0    0 -0.13887829372E+03 -0.40349497207E+02  0.66606481416E+03  0.68627306282E+03  0.80081943600E+02 0.  0.
        -11    1    5    5    0    0 -0.11284563369E+03 -0.40367728368E+02  0.36691392925E+03  0.38599160874E+03  0.00000000000E+00 0.  1.
         12    1    5    5    0    0 -0.26032660026E+02  0.18231160713E-01  0.29915088491E+03  0.30028145408E+03  0.00000000000E+00 0. -1.
        -13    1    3    3    0    0  0.32495965560E+02 -0.23893907982E+02 -0.11792724284E+02  0.42023504880E+02  0.00000000000E+00 0.  1.
         14    1    3    3    0    0  0.76841473105E+01  0.53260455257E+02 -0.12986999492E+02  0.55356881866E+02  0.00000000000E+00 0. -1.
          5    1    4    4  501    0 -0.16727829074E+02  0.34822742628E+02 -0.18211024442E+02  0.42967139547E+02  0.47000000000E+01 0. -1.
         -5    1    4    4    0  501  0.35736820188E+02 -0.93651652682E+02 -0.60073876463E+02  0.11695603020E+03  0.47000000000E+01 0. -1.
          1    1    1    2  502    0  0.89915089349E+02  0.85712848442E+02  0.77897596279E+03  0.78881871573E+03  0.00000000000E+00 0. -1.
          1    1    1    2  503    0 -0.10225899613E+02 -0.15900988455E+02 -0.21287003535E+04  0.21287843022E+04  0.00000000000E+00 0. -1.
<mgrwt>
<rscale>  0 0.48682384E+02</rscale>
<asrwt>0</asrwt>
<pdfrwt beam="1">  1        2 0.22606290E+00 0.12536031E+03</pdfrwt>
<pdfrwt beam="2">  1        2 0.34175764E+00 0.18905302E+02</pdfrwt>
<totfact> 0.18765936E+01</totfact>
</mgrwt>
</event>
<event>
13    1  0.1595792E-008  0.3140865E+02  0.7546771E-02  0.1635700E+00
          2   -1    0    0  502    0  0.00000000000E+00  0.00000000000E+00  0.92988504078E+03  0.92988504078E+03  0.00000000000E+00 0. -1.
          2   -1    0    0  503    0 -0.00000000000E+00 -0.00000000000E+00 -0.13296371652E+04  0.13296371652E+04  0.00000000000E+00 0. -1.
         24    2    1    2    0    0  0.39627140949E+02 -0.34430070279E+02 -0.15720141621E+03  0.18357773938E+03  0.78947837830E+02 0.  0.
         25    2    1    2    0    0 -0.67269281752E+02  0.10622990936E+02 -0.36686466045E+02  0.14699882672E+03  0.12499901625E+03 0.  0.
         24    2    1    2    0    0 -0.13052139343E+02  0.25942317218E+02 -0.95962741359E+02  0.12882076178E+03  0.80886208785E+02 0.  0.
        -11    1    5    5    0    0  0.23834347676E+02 -0.10934025291E+02 -0.95901925786E+01  0.27921332917E+02  0.00000000000E+00 0.  1.
         12    1    5    5    0    0 -0.36886487019E+02  0.36876342509E+02 -0.86372548780E+02  0.10089942886E+03  0.00000000000E+00 0. -1.
        -13    1    3    3    0    0 -0.63785548792E+01 -0.30316688082E+02 -0.12096911879E+03  0.12487319664E+03  0.00000000000E+00 0.  1.
         14    1    3    3    0    0  0.46005695828E+02 -0.41133821971E+01 -0.36232297420E+02  0.58704542738E+02  0.00000000000E+00 0. -1.
          5    1    4    4  501    0 -0.60932801351E+02 -0.40107640714E+02  0.14475209319E+02  0.74518795005E+02  0.47000000000E+01 0.  1.
         -5    1    4    4    0  501 -0.63364804005E+01  0.50730631649E+02 -0.51161675364E+02  0.72480031716E+02  0.47000000000E+01 0.  1.
          1    1    1    2  502    0  0.15647826177E+02  0.16804836571E+02  0.84469750119E+03  0.84500954167E+03  0.00000000000E+00 0. -1.
          1    1    1    2  503    0  0.25046453969E+02 -0.18940074445E+02 -0.95459900196E+03  0.95511533640E+03  0.00000000000E+00 0. -1.
<mgrwt>
<rscale>  0 0.26855313E+02</rscale>
<asrwt>0</asrwt>
<pdfrwt beam="1">  1        2 0.13674780E+00 0.22962077E+02</pdfrwt>
<pdfrwt beam="2">  1        2 0.19553488E+00 0.31408650E+02</pdfrwt>
<totfact> 0.11378764E+02</totfact>
</mgrwt>
</event>
<event>
13    1  0.1595792E-008  0.8627113E+02  0.7546771E-02  0.1379639E+00
          2   -1    0    0  503    0  0.00000000000E+00  0.00000000000E+00  0.15596891960E+04  0.15596891960E+04  0.00000000000E+00 0. -1.
          2   -1    0    0  502    0 -0.00000000000E+00 -0.00000000000E+00 -0.18802503927E+04  0.18802503927E+04  0.00000000000E+00 0. -1.
         24    2    1    2    0    0  0.16316092501E+03 -0.16065064947E+03 -0.94238287856E+03  0.97366328545E+03  0.86629007858E+02 0.  0.
         25    2    1    2    0    0 -0.91994753094E+02  0.12359520932E+03  0.12181757112E+03  0.23281845066E+03  0.12500439981E+03 0.  0.
         24    2    1    2    0    0  0.19884849874E+02 -0.27300531976E+02  0.23721461563E+02  0.87809207390E+02  0.77504986054E+02 0.  0.
        -11    1    3    3    0    0  0.65937598786E+02 -0.81134296132E+02 -0.26774439587E+03  0.28743277903E+03  0.00000000000E+00 0.  1.
         12    1    3    3    0    0  0.97223326228E+02 -0.79516353336E+02 -0.67463848269E+03  0.68623050642E+03  0.00000000000E+00 0. -1.
        -13    1    5    5    0    0  0.20224293114E+02  0.13625838423E+02  0.37407051715E+02  0.44653925054E+02  0.00000000000E+00 0.  1.
         14    1    5    5    0    0 -0.33944324055E+00 -0.40926370399E+02 -0.13685590152E+02  0.43155282337E+02  0.00000000000E+00 0. -1.
          5    1    4    4  501    0 -0.14146911151E+02  0.63805550838E+02 -0.12182018425E+02  0.66646642719E+02  0.47000000000E+01 0. -1.
         -5    1    4    4    0  501 -0.77847841943E+02  0.59789658477E+02  0.13399958955E+03  0.16617180794E+03  0.47000000000E+01 0. -1.
          1    1    1    2  502    0 -0.31206982655E+02 -0.36879211483E+02 -0.83134297166E+03  0.83274551247E+03  0.00000000000E+00 0. -1.
          1    1    1    2  503    0 -0.59844039139E+02  0.10123518361E+03  0.13076256209E+04  0.13129031327E+04  0.00000000000E+00 0. -1.
<mgrwt>
<rscale>  0 0.64558840E+02</rscale>
<asrwt>0</asrwt>
<pdfrwt beam="1">  1        2 0.22936606E+00 0.86271128E+02</pdfrwt>
<pdfrwt beam="2">  1        2 0.27650741E+00 0.48310993E+02</pdfrwt>
<totfact> 0.26578388E+01</totfact>
</mgrwt>
</event>
<event>
13    1  0.1595792E-008  0.4916068E+02  0.7546771E-02  0.1523810E+00
          2   -1    0    0  503    0  0.00000000000E+00  0.00000000000E+00  0.22670827509E+04  0.22670827509E+04  0.00000000000E+00 0. -1.
          2   -1    0    0  502    0 -0.00000000000E+00 -0.00000000000E+00 -0.35804546845E+04  0.35804546845E+04  0.00000000000E+00 0. -1.
         24    2    1    2    0    0  0.12248524457E+03 -0.36355221162E+03 -0.13866846620E+04  0.14410371864E+04  0.80752553598E+02 0.  0.
         25    2    1    2    0    0 -0.19477521490E+03  0.50477851583E+03 -0.18392095102E+04  0.19212118332E+04  0.12499820486E+03 0.  0.
         24    2    1    2    0    0  0.62093127675E+02 -0.15906656673E+03  0.39820608401E+03  0.44018918464E+03  0.77721964555E+02 0.  0.
        -11    1    5    5    0    0  0.63337969590E+02 -0.79639654009E+02  0.27865818137E+03  0.29665561671E+03  0.00000000000E+00 0.  1.
         12    1    5    5    0    0 -0.12448419152E+01 -0.79426912725E+02  0.11954790264E+03  0.14353356793E+03  0.00000000000E+00 0. -1.
        -13    1    3    3    0    0  0.61769449453E+02 -0.24544105372E+03 -0.10236511439E+04  0.10544754337E+04  0.00000000000E+00 0.  1.
         14    1    3    3    0    0  0.60715795116E+02 -0.11811115790E+03 -0.36303351809E+03  0.38656175271E+03  0.00000000000E+00 0. -1.
          5    1    4    4  501    0 -0.10051701008E+03  0.30539384771E+03 -0.12873050802E+04  0.13268555050E+04  0.47000000000E+01 0.  1.
         -5    1    4    4    0  501 -0.94258204818E+02  0.19938466812E+03 -0.55190442994E+03  0.59435632817E+03  0.47000000000E+01 0.  1.
          1    1    1    2  502    0 -0.22170928014E+02 -0.19165038831E+02 -0.26424177640E+03  0.26586192875E+03  0.00000000000E+00 0. -1.
          1    1    1    2  503    0  0.32367770665E+02  0.37005301355E+02  0.17785579309E+04  0.17792373025E+04  0.00000000000E+00 0. -1.
<mgrwt>
<rscale>  0 0.37956671E+02</rscale>
<asrwt>0</asrwt>
<pdfrwt beam="1">  1        2 0.33339452E+00 0.49160681E+02</pdfrwt>
<pdfrwt beam="2">  1        2 0.52653745E+00 0.29306122E+02</pdfrwt>
<totfact> 0.20152658E+00</totfact>
</mgrwt>
</event>
<event>
13    1  0.1595792E-008  0.1073321E+03  0.7546771E-02  0.1377692E+00
          2   -1    0    0  503    0  0.00000000000E+00  0.00000000000E+00  0.10800056800E+04  0.10800056800E+04  0.00000000000E+00 0. -1.
         -3   -1    0    0    0  501 -0.00000000000E+00 -0.00000000000E+00 -0.32346624990E+03  0.32346624990E+03  0.00000000000E+00 0.  1.
         24    2    1    2    0    0 -0.44236440944E+02 -0.88162636794E+01 -0.28226678687E+02  0.97537680031E+02  0.81745118652E+02 0.  0.
         25    2    1    2    0    0 -0.66749365126E+02 -0.61689284685E+02  0.31283721414E+02  0.15768470822E+03  0.12499900156E+03 0.  0.
         24    2    1    2    0    0  0.51465871978E+02  0.14709735161E+02  0.72094662533E+02  0.12118430344E+03  0.81381095760E+02 0.  0.
        -11    1    3    3    0    0 -0.63069133471E+02 -0.25394997745E+02 -0.23953874335E+02  0.72086126286E+02  0.00000000000E+00 0.  1.
         12    1    3    3    0    0  0.18832692527E+02  0.16578734065E+02 -0.42728043520E+01  0.25451553745E+02  0.00000000000E+00 0. -1.
        -13    1    5    5    0    0 -0.19907228345E+02 -0.94747068976E+01  0.16423245815E+02  0.27491649901E+02  0.00000000000E+00 0.  1.
         14    1    5    5    0    0  0.71373100323E+02  0.24184442058E+02  0.55671416718E+02  0.93692653537E+02  0.00000000000E+00 0. -1.
          5    1    4    4  502    0 -0.17264228252E+02 -0.65145570935E+02  0.67950796234E+02  0.95819620633E+02  0.47000000000E+01 0.  1.
         -5    1    4    4    0  502 -0.49485136874E+02  0.34562862498E+01 -0.36667074819E+02  0.61865087585E+02  0.47000000000E+01 0.  1.
          1    1    1    2  503    0 -0.39139682887E+02  0.49693539452E+01  0.83589729074E+03  0.83682787353E+03  0.00000000000E+00 0. -1.
         -4    1    1    2    0  501  0.98659616980E+02  0.50826459258E+02 -0.15450956588E+03  0.19023736471E+03  0.00000000000E+00 0.  1.
<mgrwt>
<rscale>  0 0.65074333E+02</rscale>
<asrwt>0</asrwt>
<pdfrwt beam="1">  1        2 0.15882436E+00 0.39453888E+02</pdfrwt>
<pdfrwt beam="2">  1       -3 0.47568567E-01 0.10733210E+03</pdfrwt>
<totfact> 0.73802744E+01</totfact>
</mgrwt>
</event>
<event>
13    1  0.1595792E-008  0.1442537E+03  0.7546771E-02  0.1270047E+00
          2   -1    0    0  502    0  0.00000000000E+00  0.00000000000E+00  0.16410072745E+04  0.16410072745E+04  0.00000000000E+00 0. -1.
          2   -1    0    0  503    0 -0.00000000000E+00 -0.00000000000E+00 -0.26269981212E+04  0.26269981212E+04  0.00000000000E+00 0. -1.
         24    2    1    2    0    0  0.56196133146E+01  0.25351670601E+02 -0.13006936786E+03  0.15504878624E+03  0.80298184298E+02 0.  0.
         25    2    1    2    0    0  0.11534192224E+03 -0.17396621598E+02 -0.35914375947E+03  0.39776389583E+03  0.12500190154E+03 0.  0.
         24    2    1    2    0    0  0.35376494596E+02  0.85242042817E+02 -0.53631821023E+02  0.12952672230E+03  0.73369594045E+02 0.  0.
        -11    1    5    5    0    0  0.31742717485E+02  0.98847468234E+02 -0.47159983805E+02  0.11402844453E+03  0.00000000000E+00 0.  1.
         12    1    5    5    0    0  0.36337771104E+01 -0.13605425417E+02 -0.64718372180E+01  0.15498277770E+02  0.00000000000E+00 0. -1.
        -11    1    3    3    0    0  0.39899472943E+02  0.24076279070E+02 -0.52297290642E+02  0.70047425102E+02  0.00000000000E+00 0.  1.
         12    1    3    3    0    0 -0.34279859628E+02  0.12753915316E+01 -0.77772077221E+02  0.85001361136E+02  0.00000000000E+00 0. -1.
          5    1    4    4  501    0  0.35700743446E+02 -0.53922598851E+02 -0.24702257257E+03  0.25539074202E+03  0.47000000000E+01 0. -1.
         -5    1    4    4    0  501  0.79641178793E+02  0.36525977253E+02 -0.11212118690E+03  0.14237315381E+03  0.47000000000E+01 0. -1.
          1    1    1    2  502    0 -0.14343232507E+03 -0.17812021149E+02  0.15672075716E+04  0.15738582123E+04  0.00000000000E+00 0. -1.
          1    1    1    2  503    0 -0.12905705074E+02 -0.75385070671E+02 -0.20103534699E+04  0.20118077791E+04  0.00000000000E+00 0. -1.
<mgrwt>
<rscale>  0 0.10503707E+03</rscale>
<asrwt>0</asrwt>
<pdfrwt beam="1">  1        2 0.24132460E+00 0.14425374E+03</pdfrwt>
<pdfrwt beam="2">  1        2 0.38632325E+00 0.76481802E+02</pdfrwt>
<totfact> 0.96642970E+00</totfact>
</mgrwt>
</event>
<event>
13    1  0.1595792E-008  0.7245781E+02  0.7546771E-02  0.1352102E+00
          2   -1    0    0  502    0  0.00000000000E+00  0.00000000000E+00  0.21350490341E+04  0.21350490341E+04  0.00000000000E+00 0. -1.
          2   -1    0    0  503    0 -0.00000000000E+00 -0.00000000000E+00 -0.23695002374E+03  0.23695002374E+03  0.00000000000E+00 0. -1.
         24    2    1    2    0    0  0.23454760837E+02  0.51546049595E+01  0.27435472631E+02  0.86148858627E+02  0.78052706078E+02 0.  0.
         25    2    1    2    0    0  0.59221710649E+02  0.14296021276E+03  0.38014267200E+03  0.42904377468E+03  0.12500110427E+03 0.  0.
         24    2    1    2    0    0 -0.71875373375E+02 -0.94162825334E+02  0.64534763280E+03  0.66096553288E+03  0.79807026783E+02 0.  0.
        -11    1    5    5    0    0  0.73747622156E+01  0.84637114001E+01  0.89138934494E+02  0.89843036297E+02  0.00000000000E+00 0.  1.
         12    1    5    5    0    0 -0.79250135591E+02 -0.10262653673E+03  0.55620869831E+03  0.57112249658E+03  0.00000000000E+00 0. -1.
        -11    1    3    3    0    0 -0.30165411499E+01  0.86484099534E+01  0.50219724438E+02  0.51048165862E+02  0.00000000000E+00 0.  1.
         12    1    3    3    0    0  0.26471301987E+02 -0.34938049939E+01 -0.22784251807E+02  0.35100692765E+02  0.00000000000E+00 0. -1.
          5    1    4    4  501    0  0.81593040517E+02  0.11194117853E+03  0.19084802853E+03  0.23586714842E+03  0.47000000000E+01 0. -1.
         -5    1    4    4    0  501 -0.22371329868E+02  0.31019034230E+02  0.18929464347E+03  0.19317662625E+03  0.47000000000E+01 0. -1.
          1    1    1    2  502    0 -0.71136244673E+02 -0.13202648375E+02  0.10116007331E+04  0.10141847556E+04  0.00000000000E+00 0. -1.
          1    1    1    2  503    0  0.60335146562E+02 -0.40749344010E+02 -0.16642750019E+03  0.18165613606E+03  0.00000000000E+00 0. -1.
<mgrwt>
<rscale>  0 0.72404415E+02</rscale>
<asrwt>0</asrwt>
<pdfrwt beam="1">  1        2 0.31397779E+00 0.72351055E+02</pdfrwt>
<pdfrwt beam="2">  1        2 0.34845593E-01 0.72457813E+02</pdfrwt>
<totfact> 0.18447336E+02</totfact>
</mgrwt>
</event>
<event>
13    1  0.1595792E-008  0.2026900E+03  0.7546771E-02  0.1232602E+00
          2   -1    0    0  502    0  0.00000000000E+00  0.00000000000E+00  0.51522037059E+03  0.51522037059E+03  0.00000000000E+00 0. -1.
          2   -1    0    0  503    0 -0.00000000000E+00 -0.00000000000E+00 -0.11455481673E+04  0.11455481673E+04  0.00000000000E+00 0. -1.
         24    2    1    2    0    0 -0.79868196517E+02 -0.56696775591E+02 -0.17140741205E+03  0.21310523874E+03  0.80248917102E+02 0.  0.
         25    2    1    2    0    0 -0.17538956884E+03 -0.12231127668E+03 -0.35918010780E+03  0.43629825749E+03  0.12499708154E+03 0.  0.
         24    2    1    2    0    0  0.17353220236E+01  0.77065256860E+02 -0.27797875615E+02  0.11547751416E+03  0.81365036906E+02 0.  0.
        -11    1    5    5    0    0  0.11753925203E+02  0.95937822057E+01  0.24983710786E+02  0.29229800193E+02  0.00000000000E+00 0.  1.
         12    1    5    5    0    0 -0.10018603179E+02  0.67471474654E+02 -0.52781586401E+02  0.86247713967E+02  0.00000000000E+00 0. -1.
        -13    1    3    3    0    0 -0.86934752961E+02 -0.53425497558E+02 -0.17644888530E+03  0.20382871285E+03  0.00000000000E+00 0.  1.
         14    1    3    3    0    0  0.70665564439E+01 -0.32712780336E+01  0.50414732497E+01  0.92765258840E+01  0.00000000000E+00 0. -1.
          5    1    4    4  501    0 -0.64515531633E+02 -0.11650112111E+03 -0.23077396978E+03  0.26648354578E+03  0.47000000000E+01 0.  1.
         -5    1    4    4    0  501 -0.11087403721E+03 -0.58101555701E+01 -0.12840613802E+03  0.16981471172E+03  0.47000000000E+01 0.  1.
          1    1    1    2  502    0  0.78299924431E+02  0.10967481365E+02  0.38767749873E+03  0.39565768896E+03  0.00000000000E+00 0. -1.
          1    1    1    2  503    0  0.17522251890E+03  0.90975314050E+02 -0.45961990003E+03  0.50022983857E+03  0.00000000000E+00 0. -1.
<mgrwt>
<rscale>  0 0.12659203E+03</rscale>
<asrwt>0</asrwt>
<pdfrwt beam="1">  1        2 0.75767701E-01 0.79064302E+02</pdfrwt>
<pdfrwt beam="2">  1        2 0.16846297E+00 0.20268997E+03</pdfrwt>
<totfact> 0.23470397E+02</totfact>
</mgrwt>
</event>
<event>
13    1  0.1595792E-008  0.1823414E+03  0.7546771E-02  0.1339175E+00
          2   -1    0    0  502    0  0.00000000000E+00  0.00000000000E+00  0.10535053152E+04  0.10535053152E+04  0.00000000000E+00 0. -1.
          2   -1    0    0  503    0 -0.00000000000E+00 -0.00000000000E+00 -0.38873726554E+04  0.38873726554E+04  0.00000000000E+00 0. -1.
         24    2    1    2    0    0 -0.35753642745E+02  0.44466240933E+02 -0.57871399585E+03  0.58720570588E+03  0.81517375277E+02 0.  0.
         25    2    1    2    0    0  0.54420063930E+02  0.22159197143E+03 -0.46893322039E+03  0.53626979663E+03  0.12498953730E+03 0.  0.
         24    2    1    2    0    0  0.10501648150E+03 -0.20886641059E+02  0.87893936636E+02  0.15900269760E+03  0.78049987736E+02 0.  0.
        -11    1    3    3    0    0 -0.17844906603E+02 -0.23102426159E+02 -0.19570739685E+03  0.19787255487E+03  0.00000000000E+00 0.  1.
         12    1    3    3    0    0 -0.17908736142E+02  0.67568667092E+02 -0.38300659900E+03  0.38933315101E+03  0.00000000000E+00 0. -1.
        -13    1    5    5    0    0  0.98583379651E+01 -0.25285549778E+02  0.49190703980E+02  0.56180701429E+02  0.00000000000E+00 0.  1.
         14    1    5    5    0    0  0.95158143531E+02  0.43989087194E+01  0.38703232656E+02  0.10282199617E+03  0.00000000000E+00 0. -1.
          5    1    4    4  501    0  0.36822887458E+02  0.22872602507E+03 -0.45935214806E+03  0.51448810045E+03  0.47000000000E+01 0.  1.
         -5    1    4    4    0  501  0.17597176473E+02 -0.71340536453E+01 -0.95810723327E+01  0.21781696175E+02  0.47000000000E+01 0.  1.
          1    1    1    2  502    0 -0.15179298295E+03 -0.22961711131E+03  0.87081539797E+03  0.91328231386E+03  0.00000000000E+00 0. -1.
          1    1    1    2  503    0  0.28110080270E+02 -0.15554459988E+02 -0.27449294586E+04  0.27451174566E+04  0.00000000000E+00 0. -1.
<mgrwt>
<rscale>  0 0.76537626E+02</rscale>
<asrwt>0</asrwt>
<pdfrwt beam="1">  1        2 0.15492725E+00 0.18234142E+03</pdfrwt>
<pdfrwt beam="2">  1        2 0.57167245E+00 0.32126591E+02</pdfrwt>
<totfact> 0.46438664E+00</totfact>
</mgrwt>
</event>
<event>
13    1  0.1595792E-008  0.2992897E+03  0.7546771E-02  0.1282698E+00
          2   -1    0    0  503    0  0.00000000000E+00  0.00000000000E+00  0.13491926340E+04  0.13491926340E+04  0.00000000000E+00 0. -1.
         -1   -1    0    0    0  501 -0.00000000000E+00 -0.00000000000E+00 -0.62331249525E+03  0.62331249525E+03  0.00000000000E+00 0.  1.
         24    2    1    2    0    0  0.50649036076E+02  0.32514494557E+01 -0.50604967576E+02  0.10724040643E+03  0.79773085989E+02 0.  0.
         25    2    1    2    0    0  0.14197918839E+02  0.31369060077E+03 -0.27765082544E+03  0.43739997665E+03  0.12500153918E+03 0.  0.
         24    2    1    2    0    0  0.23679251501E+02 -0.40473500867E+02  0.42069767314E+02  0.99109879933E+02  0.76512036664E+02 0.  0.
        -11    1    3    3    0    0  0.51515139452E+02 -0.24599434387E+02 -0.54715867381E+02  0.79074445355E+02  0.00000000000E+00 0.  1.
         12    1    3    3    0    0 -0.86610337600E+00  0.27850883843E+02  0.41108998051E+01  0.28165961072E+02  0.00000000000E+00 0. -1.
        -13    1    5    5    0    0 -0.23425976781E+02 -0.75677137516E+01  0.32636768846E+02  0.40880378671E+02  0.00000000000E+00 0.  1.
         14    1    5    5    0    0  0.47105228282E+02 -0.32905787116E+02  0.94329984677E+01  0.58229501263E+02  0.00000000000E+00 0. -1.
          5    1    4    4  502    0  0.56268124194E+02  0.23713288213E+03 -0.24025298584E+03  0.34225968619E+03  0.47000000000E+01 0. -1.
         -5    1    4    4    0  502 -0.42070205355E+02  0.76557718639E+02 -0.37397839600E+02  0.95140290458E+02  0.47000000000E+01 0. -1.
          1    1    1    2  503    0 -0.12109361087E+03 -0.27402260360E+03  0.11492915885E+04  0.11876965965E+04  0.00000000000E+00 0. -1.
         -2    1    1    2    0  501  0.32567404456E+02 -0.24459457522E+01 -0.13722542402E+03  0.14105826981E+03  0.00000000000E+00 0.  1.
<mgrwt>
<rscale>  0 0.98866279E+02</rscale>
<asrwt>0</asrwt>
<pdfrwt beam="1">  1        2 0.19841068E+00 0.29928974E+03</pdfrwt>
<pdfrwt beam="2">  1       -1 0.91663602E-01 0.32659126E+02</pdfrwt>
<totfact> 0.27022923E+01</totfact>
</mgrwt>
</event>
<event>
13    1  0.1595792E-008  0.1195663E+03  0.7546771E-02  0.1279489E+00
          2   -1    0    0  503    0  0.00000000000E+00  0.00000000000E+00  0.50474250066E+03  0.50474250066E+03  0.00000000000E+00 0. -1.
          2   -1    0    0  502    0 -0.00000000000E+00 -0.00000000000E+00 -0.10414201533E+04  0.10414201533E+04  0.00000000000E+00 0. -1.
         24    2    1    2    0    0  0.91148339796E+02  0.55157931900E+02 -0.24340686793E+03  0.28237339022E+03  0.95589805160E+02 0.  0.
         25    2    1    2    0    0 -0.62794814121E+02 -0.20416719893E+02 -0.96338113390E+02  0.17107522912E+03  0.12500268315E+03 0.  0.
         24    2    1    2    0    0  0.38987990322E+02 -0.66598332658E+01  0.14292719517E+03  0.16857701057E+03  0.80159893985E+02 0.  0.
        -13    1    3    3    0    0  0.71571122101E+02  0.66610746962E+02 -0.24036471021E+03  0.25948913473E+03  0.00000000000E+00 0.  1.
         14    1    3    3    0    0  0.19577217695E+02 -0.11452815062E+02 -0.30421577149E+01  0.22884255485E+02  0.00000000000E+00 0. -1.
        -13    1    5    5    0    0  0.78220142856E+01  0.14500164850E+02  0.12635130578E+03  0.12742092120E+03  0.00000000000E+00 0.  1.
         14    1    5    5    0    0  0.31165976037E+02 -0.21159998116E+02  0.16575889392E+02  0.41156089364E+02  0.00000000000E+00 0. -1.
          5    1    4    4  501    0 -0.99573778361E+02 -0.75410483404E+01 -0.55118436209E+02  0.11415750855E+03  0.47000000000E+01 0. -1.
         -5    1    4    4    0  501  0.36778964239E+02 -0.12875671553E+02 -0.41219677181E+02  0.56917720574E+02  0.47000000000E+01 0. -1.
          1    1    1    2  502    0 -0.12811599886E+03  0.30310567043E+02 -0.61884786459E+03  0.63269670392E+03  0.00000000000E+00 0. -1.
          1    1    1    2  503    0  0.60774482858E+02 -0.58391945784E+02  0.27898799812E+03  0.29144032012E+03  0.00000000000E+00 0. -1.
<mgrwt>
<rscale>  0 0.10038462E+03</rscale>
<asrwt>0</asrwt>
<pdfrwt beam="1">  1        2 0.74226839E-01 0.84280230E+02</pdfrwt>
<pdfrwt beam="2">  1        2 0.15315002E+00 0.11956625E+03</pdfrwt>
<totfact> 0.28201852E+02</totfact>
</mgrwt>
</event>
<event>
13    1  0.1595792E-008  0.9688413E+02  0.7546771E-02  0.1390570E+00
          2   -1    0    0  503    0  0.00000000000E+00  0.00000000000E+00  0.52982036693E+03  0.52982036693E+03  0.00000000000E+00 0. -1.
          2   -1    0    0  502    0 -0.00000000000E+00 -0.00000000000E+00 -0.27402412153E+04  0.27402412153E+04  0.00000000000E+00 0. -1.
         24    2    1    2    0    0  0.64945965306E+02 -0.29427197301E+02 -0.57115984388E+02  0.12185336039E+03  0.80635398028E+02 0.  0.
         25    2    1    2    0    0 -0.13240119683E+03 -0.15525435658E+03 -0.28498070285E+03  0.37212028764E+03  0.12500206124E+03 0.  0.
         24    2    1    2    0    0  0.26463015860E+02  0.56877883837E+02  0.56367525120E+01  0.10144953148E+03  0.79528922917E+02 0.  0.
        -11    1    5    5    0    0  0.11415813874E+02  0.69068215823E+02  0.24739141239E+02  0.74247992246E+02  0.00000000000E+00 0.  1.
         12    1    5    5    0    0  0.15047201986E+02 -0.12190331986E+02 -0.19102388728E+02  0.27201539233E+02  0.00000000000E+00 0. -1.
        -13    1    3    3    0    0  0.22941368556E+02  0.25729890896E+02 -0.34890430216E+02  0.49047689012E+02  0.00000000000E+00 0.  1.
         14    1    3    3    0    0  0.42004596751E+02 -0.55157088197E+02 -0.22225554171E+02  0.72805671378E+02  0.00000000000E+00 0. -1.
          5    1    4    4  501    0 -0.12468940713E+03 -0.17649988006E+03 -0.25972470343E+03  0.33790334045E+03  0.47000000000E+01 0. -1.
         -5    1    4    4    0  501 -0.77117897067E+01  0.21245523483E+02 -0.25255999418E+02  0.34216947192E+02  0.47000000000E+01 0. -1.
          1    1    1    2  502    0  0.20599684574E+02  0.33558186645E+02 -0.22683199311E+04  0.22686616779E+04  0.00000000000E+00 0. -1.
          1    1    1    2  503    0  0.20392531093E+02  0.94245483395E+02  0.39435901745E+03  0.40597672484E+03  0.00000000000E+00 0. -1.
<mgrwt>
<rscale>  0 0.61765247E+02</rscale>
<asrwt>0</asrwt>
<pdfrwt beam="1">  1        2 0.77914761E-01 0.96884128E+02</pdfrwt>
<pdfrwt beam="2">  1        2 0.40297664E+00 0.39376375E+02</pdfrwt>
<totfact> 0.44098728E+01</totfact>
</mgrwt>
</event>
<event>
13    1  0.1595792E-008  0.2027230E+03  0.7546771E-02  0.1279114E+00
          2   -1    0    0  502    0  0.00000000000E+00  0.00000000000E+00  0.30725362585E+04  0.30725362585E+04  0.00000000000E+00 0. -1.
          2   -1    0    0  503    0 -0.00000000000E+00 -0.00000000000E+00 -0.21376094412E+04  0.21376094412E+04  0.00000000000E+00 0. -1.
         24    2    1    2    0    0 -0.15145330347E+03  0.16932243960E+03 -0.30573734357E+03  0.38971451133E+03  0.82425028964E+02 0.  0.
         25    2    1    2    0    0  0.30334664768E+03  0.34914060759E+03 -0.10619283068E+03  0.49073139712E+03  0.12498813668E+03 0.  0.
         24    2    1    2    0    0 -0.13260797452E+03 -0.24250953209E+03  0.25329471971E+04  0.25492468906E+04  0.80264921639E+02 0.  0.
        -13    1    3    3    0    0 -0.14129711696E+03  0.10673704693E+03 -0.20745252699E+03  0.27275304472E+03  0.00000000000E+00 0.  1.
         14    1    3    3    0    0 -0.10156186506E+02  0.62585392672E+02 -0.98284816584E+02  0.11696146661E+03  0.00000000000E+00 0. -1.
        -13    1    5    5    0    0 -0.50240013571E+02 -0.16409486184E+03  0.13555204414E+04  0.13663406785E+04  0.00000000000E+00 0.  1.
         14    1    5    5    0    0 -0.82367960954E+02 -0.78414670253E+02  0.11774267557E+04  0.11829062121E+04  0.00000000000E+00 0. -1.
          5    1    4    4  501    0  0.17143018206E+02  0.93360906251E+02 -0.15536464177E+02  0.96299603365E+02  0.47000000000E+01 0. -1.
         -5    1    4    4    0  501  0.28620362948E+03  0.25577970134E+03 -0.90656366503E+02  0.39443179376E+03  0.47000000000E+01 0. -1.
          1    1    1    2  502    0 -0.49696886197E+02  0.43459290558E+01  0.28157076360E+03  0.28595587512E+03  0.00000000000E+00 0. -1.
          1    1    1    2  503    0  0.30411516509E+02 -0.28029944415E+03 -0.14676609692E+04  0.14944970255E+04  0.00000000000E+00 0. -1.
<mgrwt>
<rscale>  0 0.10056417E+03</rscale>
<asrwt>0</asrwt>
<pdfrwt beam="1">  1        2 0.45184357E+00 0.49886547E+02</pdfrwt>
<pdfrwt beam="2">  1        2 0.31435433E+00 0.20272303E+03</pdfrwt>
<totfact> 0.33718580E+00</totfact>
</mgrwt>
</event>
<event>
13    1  0.1595792E-008  0.1736795E+03  0.7546771E-02  0.1237163E+00
          2   -1    0    0  502    0  0.00000000000E+00  0.00000000000E+00  0.12868490156E+04  0.12868490156E+04  0.00000000000E+00 0. -1.
          2   -1    0    0  503    0 -0.00000000000E+00 -0.00000000000E+00 -0.12111706336E+04  0.12111706336E+04  0.00000000000E+00 0. -1.
         24    2    1    2    0    0 -0.18063529548E+03  0.31369379861E+03 -0.19792385111E+03  0.41963113908E+03  0.76704190192E+02 0.  0.
         25    2    1    2    0    0  0.20344442253E+02 -0.38405991095E+03  0.23513221199E+03  0.46778951418E+03  0.12499584367E+03 0.  0.
         24    2    1    2    0    0 -0.61157091670E+02 -0.42842313064E+02  0.12622648012E+03  0.16724127663E+03  0.80379516525E+02 0.  0.
        -13    1    5    5    0    0 -0.79623316328E+02 -0.44242611914E+02  0.10211231414E+03  0.13683642027E+03  0.00000000000E+00 0.  1.
         14    1    5    5    0    0  0.18466224657E+02  0.14002988499E+01  0.24114165978E+02  0.30404856368E+02  0.00000000000E+00 0. -1.
        -13    1    3    3    0    0 -0.14878825846E+03  0.29972714797E+03 -0.18614472687E+03  0.38291535413E+03  0.00000000000E+00 0.  1.
         14    1    3    3    0    0 -0.31847037018E+02  0.13966650633E+02 -0.11779124240E+02  0.36715784951E+02  0.00000000000E+00 0. -1.
          5    1    4    4  501    0 -0.50201069024E+02 -0.22089059857E+03  0.13160982120E+03  0.26202297401E+03  0.47000000000E+01 0. -1.
         -5    1    4    4    0  501  0.70545511277E+02 -0.16316931238E+03  0.10352239078E+03  0.20576654017E+03  0.47000000000E+01 0. -1.
          1    1    1    2  502    0  0.88041403715E+02  0.18198296104E+01  0.66499683997E+03  0.67080205554E+03  0.00000000000E+00 0. -1.
          1    1    1    2  503    0  0.13340654118E+03  0.11138859580E+03 -0.75275329893E+03  0.77255566373E+03  0.00000000000E+00 0. -1.
<mgrwt>
<rscale>  0 0.12366993E+03</rscale>
<asrwt>0</asrwt>
<pdfrwt beam="1">  1        2 0.18924250E+00 0.88060210E+02</pdfrwt>
<pdfrwt beam="2">  1        2 0.17811333E+00 0.17367949E+03</pdfrwt>
<totfact> 0.70097067E+01</totfact>
</mgrwt>
</event>
<event>
13    1  0.1595792E-008  0.5810488E+02  0.7546771E-02  0.1572739E+00
          2   -1    0    0  503    0  0.00000000000E+00  0.00000000000E+00  0.30284615071E+04  0.30284615071E+04  0.00000000000E+00 0. -1.
          2   -1    0    0  502    0 -0.00000000000E+00 -0.00000000000E+00 -0.19879380435E+04  0.19879380435E+04  0.00000000000E+00 0. -1.
         24    2    1    2    0    0 -0.78259990419E+03  0.22211614856E+03 -0.28012290477E+03  0.86492068153E+03  0.88435004868E+02 0.  0.
         25    2    1    2    0    0  0.10383524982E+04 -0.20666605262E+03  0.54663459941E+02  0.10674745638E+04  0.12500833011E+03 0.  0.
         24    2    1    2    0    0 -0.20935195433E+03 -0.25296383256E+01  0.12355526900E+04  0.12571031919E+04  0.99415016077E+02 0.  0.
        -13    1    3    3    0    0 -0.40264509624E+03  0.14932415679E+03 -0.17747234930E+03  0.46466892740E+03  0.00000000000E+00 0.  1.
         14    1    3    3    0    0 -0.37995480795E+03  0.72791991769E+02 -0.10265055547E+03  0.40025175413E+03  0.00000000000E+00 0. -1.
        -13    1    5    5    0    0 -0.68349283350E+02  0.29038463778E+02  0.24318140428E+03  0.25426767845E+03  0.00000000000E+00 0.  1.
         14    1    5    5    0    0 -0.14100267098E+03 -0.31568102103E+02  0.99237128570E+03  0.10028355134E+04  0.00000000000E+00 0. -1.
          5    1    4    4  501    0  0.21001041335E+03 -0.90288321999E+02 -0.66345907783E+01  0.22874103829E+03  0.47000000000E+01 0.  1.
         -5    1    4    4    0  501  0.82834208490E+03 -0.11637773062E+03  0.61298050719E+02  0.83873352551E+03  0.47000000000E+01 0.  1.
          1    1    1    2  502    0  0.11707583214E+02 -0.13795676990E+02 -0.89723495674E+03  0.89741738105E+03  0.00000000000E+00 0. -1.
          1    1    1    2  503    0 -0.58108222939E+02  0.87521937999E+00  0.92766517515E+03  0.92948373239E+03  0.00000000000E+00 0. -1.
<mgrwt>
<rscale>  0 0.32424409E+02</rscale>
<asrwt>0</asrwt>
<pdfrwt beam="1">  1        2 0.44536199E+00 0.58104882E+02</pdfrwt>
<pdfrwt beam="2">  1        2 0.29234383E+00 0.18093872E+02</pdfrwt>
<totfact> 0.53694965E+00</totfact>
</mgrwt>
</event>
<event>
13    1  0.1595792E-008  0.6331309E+02  0.7546771E-02  0.1410250E+00
          2   -1    0    0  503    0  0.00000000000E+00  0.00000000000E+00  0.17701637573E+04  0.17701637573E+04  0.00000000000E+00 0. -1.
         -1   -1    0    0    0  501 -0.00000000000E+00 -0.00000000000E+00 -0.64038942094E+03  0.64038942094E+03  0.00000000000E+00 0.  1.
         24    2    1    2    0    0  0.10517798297E+02 -0.24665799099E+02 -0.12667064353E+03  0.15304540341E+03  0.81599128956E+02 0.  0.
         25    2    1    2    0    0  0.64713715222E+01  0.53096534340E+02  0.18448136319E+03  0.22917118159E+03  0.12499974600E+03 0.  0.
         24    2    1    2    0    0 -0.16989591699E+02 -0.25543428245E+01  0.83804971462E+03  0.84200417616E+03  0.79677710849E+02 0.  0.
        -11    1    5    5    0    0 -0.38642078328E+02  0.16594361331E+02  0.68231029816E+03  0.68360509508E+03  0.00000000000E+00 0.  1.
         12    1    5    5    0    0  0.21652486628E+02 -0.19148704155E+02  0.15573941646E+03  0.15839908108E+03  0.00000000000E+00 0. -1.
        -13    1    3    3    0    0  0.35385955513E+02  0.12450040749E+02 -0.80429448655E+02  0.88747200369E+02  0.00000000000E+00 0.  1.
         14    1    3    3    0    0 -0.24868157216E+02 -0.37115839848E+02 -0.46241194874E+02  0.64298203041E+02  0.00000000000E+00 0. -1.
          5    1    4    4  502    0 -0.45666032529E+02  0.25539770680E+02  0.23286071819E+02  0.57463010312E+02  0.47000000000E+01 0. -1.
         -5    1    4    4    0  502  0.52137404051E+02  0.27556763661E+02  0.16119529137E+03  0.17170817128E+03  0.47000000000E+01 0. -1.
          1    1    1    2  503    0  0.49801567703E+02  0.13370879129E+02  0.70706941626E+03  0.70894720252E+03  0.00000000000E+00 0. -1.
         -2    1    1    2    0  501 -0.49801145823E+02 -0.39247271546E+02 -0.47315551420E+03  0.47738521454E+03  0.00000000000E+00 0.  1.
<mgrwt>
<rscale>  0 0.57138043E+02</rscale>
<asrwt>0</asrwt>
<pdfrwt beam="1">  1        2 0.26031820E+00 0.51565265E+02</pdfrwt>
<pdfrwt beam="2">  1       -1 0.94174915E-01 0.63313085E+02</pdfrwt>
<totfact> 0.17697778E+01</totfact>
</mgrwt>
</event>
<event>
13    1  0.1595792E-008  0.1182197E+03  0.7546771E-02  0.1294073E+00
          2   -1    0    0  503    0  0.00000000000E+00  0.00000000000E+00  0.13217821302E+04  0.13217821302E+04  0.00000000000E+00 0. -1.
          2   -1    0    0  502    0 -0.00000000000E+00 -0.00000000000E+00 -0.13553632482E+04  0.13553632482E+04  0.00000000000E+00 0. -1.
         24    2    1    2    0    0  0.93656739082E+00 -0.10551315287E+02 -0.76008102141E+02  0.11151293366E+03  0.80905471819E+02 0.  0.
         25    2    1    2    0    0  0.78004392937E+02 -0.10108731526E+03 -0.11296465059E+03  0.21139867252E+03  0.12500022335E+03 0.  0.
         24    2    1    2    0    0  0.71772033059E+02 -0.75951502221E+01  0.63820941464E+02  0.12548999727E+03  0.80409674855E+02 0.  0.
        -13    1    5    5    0    0  0.53852740181E+02 -0.36180879460E+02  0.15752128261E+02  0.66763037740E+02  0.00000000000E+00 0.  1.
         14    1    5    5    0    0  0.17919292877E+02  0.28585729238E+02  0.48068813204E+02  0.58726959534E+02  0.00000000000E+00 0. -1.
        -13    1    3    3    0    0 -0.20997644308E+02  0.29165184238E+02 -0.38271745653E+02  0.52499862413E+02  0.00000000000E+00 0.  1.
         14    1    3    3    0    0  0.21934211698E+02 -0.39716499525E+02 -0.37736356489E+02  0.59013071250E+02  0.00000000000E+00 0. -1.
          5    1    4    4  501    0  0.10283157282E+03 -0.11114259176E+03 -0.95656385839E+02  0.17916261391E+03  0.47000000000E+01 0.  1.
         -5    1    4    4    0  501 -0.24827179878E+02  0.10055276503E+02 -0.17308264749E+02  0.32236058613E+02  0.47000000000E+01 0.  1.
          1    1    1    2  502    0 -0.55065311724E+02  0.49892241412E+02 -0.10642802623E+04  0.10668710798E+04  0.00000000000E+00 0. -1.
          1    1    1    2  503    0 -0.95647681662E+02  0.69341539352E+02  0.11558509556E+04  0.11618726951E+04  0.00000000000E+00 0. -1.
<mgrwt>
<rscale>  0 0.93725482E+02</rscale>
<asrwt>0</asrwt>
<pdfrwt beam="1">  1        2 0.19437973E+00 0.11821969E+03</pdfrwt>
<pdfrwt beam="2">  1        2 0.19931812E+00 0.74306287E+02</pdfrwt>
<totfact> 0.58593627E+01</totfact>
</mgrwt>
</event>
<event>
13    1  0.1595792E-008  0.4674302E+02  0.7546771E-02  0.1531932E+00
          2   -1    0    0  503    0  0.00000000000E+00  0.00000000000E+00  0.39021647901E+04  0.39021647901E+04  0.00000000000E+00 0. -1.
          2   -1    0    0  502    0 -0.00000000000E+00 -0.00000000000E+00 -0.19710002702E+04  0.19710002702E+04  0.00000000000E+00 0. -1.
         24    2    1    2    0    0 -0.22569228868E+03  0.73189300157E+02 -0.45921498300E+03  0.52828092196E+03  0.10912675687E+03 0.  0.
         25    2    1    2    0    0  0.43574029640E+02  0.37981279009E+03  0.79794798063E+03  0.89358941863E+03  0.12499847083E+03 0.  0.
         24    2    1    2    0    0  0.17874954365E+03 -0.38129896829E+03  0.21265680677E+04  0.21693345208E+04  0.79876243705E+02 0.  0.
        -11    1    3    3    0    0 -0.10520943150E+03 -0.84104730218E+01 -0.26769994095E+03  0.28775513708E+03  0.00000000000E+00 0.  1.
         12    1    3    3    0    0 -0.12048285719E+03  0.81599773179E+02 -0.19151504205E+03  0.24052578488E+03  0.00000000000E+00 0. -1.
        -11    1    5    5    0    0  0.89516522040E+02 -0.27289409438E+03  0.14967700619E+04  0.15240751335E+04  0.00000000000E+00 0.  1.
         12    1    5    5    0    0  0.89233021614E+02 -0.10840487390E+03  0.62979800579E+03  0.64525938733E+03  0.00000000000E+00 0. -1.
          5    1    4    4  501    0 -0.14117060356E+02  0.27649714430E+03  0.47774416073E+03  0.55218795288E+03  0.47000000000E+01 0.  1.
         -5    1    4    4    0  501  0.57691089997E+02  0.10331564579E+03  0.32020381991E+03  0.34140146574E+03  0.47000000000E+01 0.  1.
          1    1    1    2  502    0 -0.10735344555E+02 -0.27165064661E+02 -0.14072723465E+04  0.14075754493E+04  0.00000000000E+00 0. -1.
          1    1    1    2  503    0  0.14104059944E+02 -0.44538057295E+02  0.87313580107E+03  0.87438474951E+03  0.00000000000E+00 0. -1.
<mgrwt>
<rscale>  0 0.36950439E+02</rscale>
<asrwt>0</asrwt>
<pdfrwt beam="1">  1        2 0.57384776E+00 0.46743019E+02</pdfrwt>
<pdfrwt beam="2">  1        2 0.28985298E+00 0.29209388E+02</pdfrwt>
<totfact> 0.17004036E+00</totfact>
</mgrwt>
</event>
<event>
13    1  0.1595792E-008  0.2935099E+02  0.7546771E-02  0.1681028E+00
          2   -1    0    0  502    0  0.00000000000E+00  0.00000000000E+00  0.14837560884E+04  0.14837560884E+04  0.00000000000E+00 0. -1.
          2   -1    0    0  503    0 -0.00000000000E+00 -0.00000000000E+00 -0.70990516253E+03  0.70990516253E+03  0.00000000000E+00 0. -1.
         24    2    1    2    0    0 -0.17991577242E+02  0.12497659242E+03 -0.79088354850E+02  0.16502052635E+03  0.70950410424E+02 0.  0.
         25    2    1    2    0    0 -0.62700947787E+02 -0.36768614225E+03 -0.14959670411E+03  0.42086633546E+03  0.12499916157E+03 0.  0.
         24    2    1    2    0    0  0.63975870319E+02  0.20072297453E+03  0.69951310882E+03  0.73465831670E+03  0.77599151997E+02 0.  0.
        -11    1    5    5    0    0 -0.10463791672E+02  0.16870934909E+02  0.27055507106E+02  0.33557709184E+02  0.00000000000E+00 0.  1.
         12    1    5    5    0    0  0.74439661991E+02  0.18385203962E+03  0.67245760171E+03  0.70110060751E+03  0.00000000000E+00 0. -1.
        -11    1    3    3    0    0  0.16753148851E+02  0.10077545104E+03 -0.60928530795E+02  0.11894807856E+03  0.00000000000E+00 0.  1.
         12    1    3    3    0    0 -0.34744726093E+02  0.24201141377E+02 -0.18159824055E+02  0.46072447785E+02  0.00000000000E+00 0. -1.
          5    1    4    4  501    0 -0.35176126679E+02 -0.33473441067E+03 -0.16517328469E+03  0.37495171629E+03  0.47000000000E+01 0.  1.
         -5    1    4    4    0  501 -0.27524821108E+02 -0.32951731574E+02  0.15576580583E+02  0.45914619169E+02  0.47000000000E+01 0.  1.
          1    1    1    2  502    0 -0.15296097052E+01  0.19011254874E+02  0.58715926337E+03  0.58746895073E+03  0.00000000000E+00 0. -1.
          1    1    1    2  503    0  0.18246264416E+02  0.22975320422E+02 -0.28413638736E+03  0.28564712170E+03  0.00000000000E+00 0. -1.
<mgrwt>
<rscale>  0 0.23660144E+02</rscale>
<asrwt>0</asrwt>
<pdfrwt beam="1">  1        2 0.21819943E+00 0.19072690E+02</pdfrwt>
<pdfrwt beam="2">  1        2 0.10439782E+00 0.29350994E+02</pdfrwt>
<totfact> 0.13529813E+02</totfact>
</mgrwt>
</event>
<event>
13    1  0.1595792E-008  0.6197893E+02  0.7546771E-02  0.1411607E+00
          4   -1    0    0  503    0 -0.00000000000E+00  0.00000000000E+00  0.25120172454E+03  0.25120172454E+03  0.00000000000E+00 0. -1.
          2   -1    0    0  502    0  0.00000000000E+00 -0.00000000000E+00 -0.79160935041E+03  0.79160935041E+03  0.00000000000E+00 0. -1.
         24    2    1    2    0    0 -0.29118152500E+02 -0.31728046951E+02  0.29199556863E+02  0.96157961594E+02  0.80865342939E+02 0.  0.
         25    2    1    2    0    0  0.89778426588E+02  0.32438659590E+02  0.23339814742E+02  0.15900259206E+03  0.12499857925E+03 0.  0.
         24    2    1    2    0    0 -0.37909685836E+02  0.17576896698E+02 -0.65202015174E+02  0.11179486462E+03  0.80626902431E+02 0.  0.
        -13    1    3    3    0    0  0.25994146504E+02  0.20776660359E+01  0.24618581495E+01  0.26192997044E+02  0.00000000000E+00 0.  1.
         14    1    3    3    0    0 -0.55112299003E+02 -0.33805712986E+02  0.26737698714E+02  0.69964964550E+02  0.00000000000E+00 0. -1.
        -13    1    5    5    0    0 -0.25366862286E+02  0.44991539696E+02 -0.63143329032E+02  0.81576935145E+02  0.00000000000E+00 0.  1.
         14    1    5    5    0    0 -0.12542823550E+02 -0.27414642998E+02 -0.20586861418E+01  0.30217929478E+02  0.00000000000E+00 0. -1.
          5    1    4    4  501    0  0.11223100721E+03  0.49407242545E+02  0.92560530502E+00  0.12271846373E+03  0.47000000000E+01 0. -1.
         -5    1    4    4    0  501 -0.22452580621E+02 -0.16968582955E+02  0.22414209437E+02  0.36284128331E+02  0.47000000000E+01 0. -1.
          1    1    1    2  502    0 -0.59562802166E+02  0.18610764003E+02 -0.59077798660E+03  0.59406457342E+03  0.00000000000E+00 0. -1.
          3    1    1    2  503    0  0.36812213913E+02 -0.36898273340E+02  0.63033004301E+02  0.81791083254E+02  0.00000000000E+00 0. -1.
<mgrwt>
<rscale>  0 0.56836763E+02</rscale>
<asrwt>0</asrwt>
<pdfrwt beam="2">  1        2 0.11641314E+00 0.61978933E+02</pdfrwt>
<pdfrwt beam="1">  1        4 0.36941431E-01 0.52121221E+02</pdfrwt>
<totfact> 0.13268097E+02</totfact>
</mgrwt>
</event>
<event>
13    1  0.1595792E-008  0.1133239E+03  0.7546771E-02  0.1379246E+00
          2   -1    0    0  503    0  0.00000000000E+00  0.00000000000E+00  0.13133701978E+04  0.13133701978E+04  0.00000000000E+00 0. -1.
          2   -1    0    0  502    0 -0.00000000000E+00 -0.00000000000E+00 -0.66265150265E+03  0.66265150265E+03  0.00000000000E+00 0. -1.
         24    2    1    2    0    0 -0.35775095639E+02 -0.26117967166E+02 -0.73447991116E+02  0.11721463197E+03  0.79891531921E+02 0.  0.
         25    2    1    2    0    0 -0.11992400252E+03 -0.30975916893E+02 -0.40538197159E+02  0.18057040436E+03  0.12498420577E+03 0.  0.
         24    2    1    2    0    0 -0.46496845338E+01  0.73927338939E+02  0.14986787931E+03  0.18172438881E+03  0.71249570056E+02 0.  0.
        -11    1    3    3    0    0  0.84358173300E+00 -0.46134618566E+02 -0.22438356193E+02  0.51308814925E+02  0.00000000000E+00 0.  1.
         12    1    3    3    0    0 -0.36618677372E+02  0.20016651400E+02 -0.51009634923E+02  0.65905817047E+02  0.00000000000E+00 0. -1.
        -13    1    5    5    0    0  0.82861362258E+01 -0.44847391315E+01 -0.26117487407E+01  0.97772271179E+01  0.00000000000E+00 0.  1.
         14    1    5    5    0    0 -0.12935820760E+02  0.78412078070E+02  0.15247962805E+03  0.17194716170E+03  0.00000000000E+00 0. -1.
          5    1    4    4  501    0 -0.53638765542E+02  0.20333362652E+02  0.35228988139E+02  0.67481363434E+02  0.47000000000E+01 0.  1.
         -5    1    4    4    0  501 -0.66285236982E+02 -0.51309279545E+02 -0.75767185298E+02  0.11308904092E+03  0.47000000000E+01 0.  1.
          1    1    1    2  502    0  0.36654933817E+02  0.42130913538E+01 -0.43632806418E+03  0.43788527481E+03  0.00000000000E+00 0. -1.
          1    1    1    2  503    0  0.12369384888E+03 -0.21046546234E+02  0.10511650683E+04  0.10586270005E+04  0.00000000000E+00 0. -1.
<mgrwt>
<rscale>  0 0.64662431E+02</rscale>
<asrwt>0</asrwt>
<pdfrwt beam="1">  1        2 0.19314268E+00 0.11332394E+03</pdfrwt>
<pdfrwt beam="2">  1        2 0.97448750E-01 0.36896264E+02</pdfrwt>
<totfact> 0.15269020E+02</totfact>
</mgrwt>
</event>
<event>
13    1  0.1595792E-008  0.1257308E+03  0.7546771E-02  0.1274840E+00
          2   -1    0    0  503    0  0.00000000000E+00  0.00000000000E+00  0.27720967863E+04  0.27720967863E+04  0.00000000000E+00 0. -1.
          2   -1    0    0  502    0 -0.00000000000E+00 -0.00000000000E+00 -0.58791072068E+03  0.58791072068E+03  0.00000000000E+00 0. -1.
         24    2    1    2    0    0  0.94033607616E+02 -0.68983465884E+02  0.79168039008E+00  0.14176387490E+03  0.80593619732E+02 0.  0.
         25    2    1    2    0    0 -0.51927582818E+02  0.13902466035E+03  0.19393300914E+03  0.27433590175E+03  0.12500337960E+03 0.  0.
         24    2    1    2    0    0 -0.90281044350E+01 -0.10079186128E+03  0.56176264044E+03  0.57649976065E+03  0.80834422531E+02 0.  0.
        -11    1    5    5    0    0  0.33191554672E+02 -0.58197033432E+02  0.35261236463E+03  0.35892067883E+03  0.00000000000E+00 0.  1.
         12    1    5    5    0    0 -0.42219659106E+02 -0.42594827843E+02  0.20915027581E+03  0.21757908182E+03  0.00000000000E+00 0. -1.
        -13    1    3    3    0    0  0.44896860456E+02  0.12350688709E+02 -0.30240030198E+01  0.46662749433E+02  0.00000000000E+00 0.  1.
         14    1    3    3    0    0  0.49136747160E+02 -0.81334154593E+02  0.38156834099E+01  0.95101125465E+02  0.00000000000E+00 0. -1.
          5    1    4    4  501    0 -0.74265783534E+02  0.26377448128E+02  0.84271852470E+02  0.11547732025E+03  0.47000000000E+01 0. -1.
         -5    1    4    4    0  501  0.22338200716E+02  0.11264721222E+03  0.10966115667E+03  0.15885858150E+03  0.47000000000E+01 0. -1.
          1    1    1    2  502    0 -0.66840959124E+02  0.10743726372E+03 -0.46038973254E+03  0.47746118720E+03  0.00000000000E+00 0. -1.
          1    1    1    2  503    0  0.33763038761E+02 -0.76686596914E+02  0.18880884682E+04  0.18899467825E+04  0.00000000000E+00 0. -1.
<mgrwt>
<rscale>  0 0.10264012E+03</rscale>
<asrwt>0</asrwt>
<pdfrwt beam="1">  1        2 0.40766129E+00 0.83790077E+02</pdfrwt>
<pdfrwt beam="2">  1        2 0.86457460E-01 0.12573080E+03</pdfrwt>
<totfact> 0.33617631E+01</totfact>
</mgrwt>
</event>
<event>
13    1  0.1595792E-008  0.1742757E+03  0.7546771E-02  0.1364771E+00
          2   -1    0    0  502    0  0.00000000000E+00  0.00000000000E+00  0.91750920385E+03  0.91750920385E+03  0.00000000000E+00 0. -1.
          2   -1    0    0  503    0 -0.00000000000E+00 -0.00000000000E+00 -0.22628655504E+04  0.22628655504E+04  0.00000000000E+00 0. -1.
         24    2    1    2    0    0  0.21028482534E+02 -0.10733209289E+03 -0.13835704590E+03  0.19309753788E+03  0.78623226485E+02 0.  0.
         25    2    1    2    0    0 -0.89170689984E+02 -0.39374383699E+01 -0.17983253454E+03  0.23649507423E+03  0.12499305693E+03 0.  0.
         24    2    1    2    0    0 -0.66367786050E+02 -0.12459746243E+02  0.55766111201E+03  0.56736244652E+03  0.79713873113E+02 0.  0.
        -11    1    3    3    0    0 -0.11231640491E+02 -0.24612175880E+02  0.18771208341E+01  0.27118859347E+02  0.00000000000E+00 0.  1.
         12    1    3    3    0    0  0.32260123024E+02 -0.82719917012E+02 -0.14023416673E+03  0.16597867853E+03  0.00000000000E+00 0. -1.
        -11    1    5    5    0    0  0.47872347492E+01  0.15235533043E+02  0.24473907264E+03  0.24525956201E+03  0.00000000000E+00 0.  1.
         12    1    5    5    0    0 -0.71155020800E+02 -0.27695279286E+02  0.31292203938E+03  0.32210288451E+03  0.00000000000E+00 0. -1.
          5    1    4    4  501    0 -0.10332731182E+03  0.13977330501E+02 -0.73548814583E+02  0.12768483568E+03  0.47000000000E+01 0.  1.
         -5    1    4    4    0  501  0.14156621833E+02 -0.17914768870E+02 -0.10628371996E+03  0.10881023855E+03  0.47000000000E+01 0.  1.
          1    1    1    2  502    0  0.99894192322E+01 -0.25123398304E+02  0.29367596364E+03  0.29491786189E+03  0.00000000000E+00 0. -1.
          1    1    1    2  503    0  0.12452057427E+03  0.14885267581E+03 -0.18785038417E+04  0.18885018337E+04  0.00000000000E+00 0. -1.
<mgrwt>
<rscale>  0 0.68642616E+02</rscale>
<asrwt>0</asrwt>
<pdfrwt beam="1">  1        2 0.13492783E+00 0.27036524E+02</pdfrwt>
<pdfrwt beam="2">  1        2 0.33277434E+00 0.17427569E+03</pdfrwt>
<totfact> 0.34769687E+01</totfact>
</mgrwt>
</event>
<event>
13    1  0.1595792E-008  0.1562736E+03  0.7546771E-02  0.1265377E+00
          4   -1    0    0  503    0 -0.00000000000E+00  0.00000000000E+00  0.16313676652E+04  0.16313676652E+04  0.00000000000E+00 0. -1.
          2   -1    0    0  502    0  0.00000000000E+00 -0.00000000000E+00 -0.22473147979E+04  0.22473147979E+04  0.00000000000E+00 0. -1.
         24    2    1    2    0    0 -0.79725258671E+02 -0.35672921533E+01  0.10490786522E+03  0.15449810482E+03  0.80592566429E+02 0.  0.
         25    2    1    2    0    0  0.24248493987E+03  0.15665682302E+03  0.42137413147E+03  0.52585080419E+03  0.12499041299E+03 0.  0.
         24    2    1    2    0    0  0.64723343721E+02 -0.13018457438E+02 -0.13771438941E+03  0.17257787028E+03  0.80369626130E+02 0.  0.
        -11    1    5    5    0    0  0.10736659983E+02  0.38462354881E+01 -0.10816482449E+03  0.10876441813E+03  0.00000000000E+00 0.  1.
         12    1    5    5    0    0  0.53986683737E+02 -0.16864692927E+02 -0.29549564925E+02  0.63813452153E+02  0.00000000000E+00 0. -1.
        -11    1    3    3    0    0 -0.24262638010E+02 -0.39533066869E+02  0.33678967998E+02  0.57322001577E+02  0.00000000000E+00 0.  1.
         12    1    3    3    0    0 -0.55462620661E+02  0.35965774716E+02  0.71228897227E+02  0.97176103244E+02  0.00000000000E+00 0. -1.
          5    1    4    4  501    0  0.22487511674E+03  0.98529891234E+02  0.28314309230E+03  0.37479202008E+03  0.47000000000E+01 0. -1.
         -5    1    4    4    0  501  0.17609823128E+02  0.58126931783E+02  0.13823103917E+03  0.15105878412E+03  0.47000000000E+01 0. -1.
          1    1    1    2  502    0 -0.17694005786E+03 -0.19394589013E+03 -0.20052173281E+04  0.20223301722E+04  0.00000000000E+00 0. -1.
          3    1    1    2  503    0 -0.50542967060E+02  0.53874816700E+02  0.10007025881E+04  0.10034255116E+04  0.00000000000E+00 0. -1.
<mgrwt>
<rscale>  0 0.10744423E+03</rscale>
<asrwt>0</asrwt>
<pdfrwt beam="2">  1        2 0.33048747E+00 0.15627363E+03</pdfrwt>
<pdfrwt beam="1">  1        4 0.23990701E+00 0.73872102E+02</pdfrwt>
<totfact> 0.30048103E-01</totfact>
</mgrwt>
</event>
<event>
13    1  0.1595792E-008  0.5130635E+02  0.7546771E-02  0.1608534E+00
         -1   -1    0    0    0  501 -0.00000000000E+00  0.00000000000E+00  0.81002670437E+03  0.81002670437E+03  0.00000000000E+00 0.  1.
          4   -1    0    0  503    0  0.00000000000E+00 -0.00000000000E+00 -0.11303156211E+04  0.11303156211E+04  0.00000000000E+00 0. -1.
         24    2    1    2    0    0 -0.75542465807E+02  0.15780729631E+02  0.37823441187E+03  0.39472740027E+03  0.82418169292E+02 0.  0.
         25    2    1    2    0    0  0.86153023011E+02 -0.32977867204E+02 -0.14024065301E+03  0.20928519198E+03  0.12499187064E+03 0.  0.
         24    2    1    2    0    0  0.55129366341E+02  0.21315862071E+02 -0.87528980968E+02  0.13234025672E+03  0.79743388624E+02 0.  0.
        -13    1    5    5    0    0  0.37274048925E+00 -0.25908510852E+02 -0.15071610590E+02  0.29975712098E+02  0.00000000000E+00 0.  1.
         14    1    5    5    0    0  0.54756625852E+02  0.47224372923E+02 -0.72457370378E+02  0.10236454462E+03  0.00000000000E+00 0. -1.
        -13    1    3    3    0    0 -0.18143614784E+02 -0.14977326935E+02  0.20780556754E+02  0.31390167546E+02  0.00000000000E+00 0.  1.
         14    1    3    3    0    0 -0.57398851023E+02  0.30758056566E+02  0.35745385512E+03  0.36333723272E+03  0.00000000000E+00 0. -1.
          5    1    4    4  502    0  0.10208332808E+03 -0.40951031430E+01 -0.14304918805E+03  0.17584918522E+03  0.47000000000E+01 0. -1.
         -5    1    4    4    0  502 -0.15930305068E+02 -0.28882764061E+02  0.28085350314E+01  0.33436006765E+02  0.47000000000E+01 0. -1.
          3    1    1    2  503    0 -0.51158206203E+02  0.35549080492E+01 -0.83640073313E+03  0.83797135143E+03  0.00000000000E+00 0. -1.
         -2    1    1    2    0  501 -0.14581717342E+02 -0.76736325467E+01  0.36564703851E+03  0.36601812509E+03  0.00000000000E+00 0.  1.
<mgrwt>
<rscale>  0 0.29075853E+02</rscale>
<asrwt>0</asrwt>
<pdfrwt beam="2">  1        4 0.16622288E+00 0.51306350E+02</pdfrwt>
<pdfrwt beam="1">  1       -1 0.11912158E+00 0.16477594E+02</pdfrwt>
<totfact> 0.72969623E-01</totfact>
</mgrwt>
</event>
<event>
13    1  0.1595792E-008  0.4810176E+02  0.7546771E-02  0.1495373E+00
          4   -1    0    0  503    0 -0.00000000000E+00  0.00000000000E+00  0.80205706377E+03  0.80205706377E+03  0.00000000000E+00 0. -1.
          2   -1    0    0  502    0  0.00000000000E+00 -0.00000000000E+00 -0.76052585946E+03  0.76052585946E+03  0.00000000000E+00 0. -1.
         24    2    1    2    0    0 -0.56674445214E+02 -0.15902779325E+03  0.17936010212E+03  0.25875955854E+03  0.79275665487E+02 0.  0.
         25    2    1    2    0    0  0.24325014637E+02  0.12281184559E+03 -0.19209108253E+02  0.17796031028E+03  0.12500570563E+03 0.  0.
         24    2    1    2    0    0  0.53652161394E+02  0.41824452018E+02 -0.33793670075E+03  0.35403781552E+03  0.80707632184E+02 0.  0.
        -11    1    3    3    0    0 -0.66774265716E+02 -0.15289145192E+03  0.18173798872E+03  0.24670487465E+03  0.00000000000E+00 0.  1.
         12    1    3    3    0    0  0.10099820502E+02 -0.61363413302E+01 -0.23778865995E+01  0.12054683893E+02  0.00000000000E+00 0. -1.
        -13    1    5    5    0    0  0.75281482715E+02  0.32671264002E+02 -0.26184351737E+03  0.27440251588E+03  0.00000000000E+00 0.  1.
         14    1    5    5    0    0 -0.21629321320E+02  0.91531880164E+01 -0.76093183385E+02  0.79635299643E+02  0.00000000000E+00 0. -1.
          5    1    4    4  501    0  0.11780257730E+02 -0.22867690902E+02 -0.17847878356E+02  0.31659793448E+02  0.47000000000E+01 0. -1.
         -5    1    4    4    0  501  0.12544756908E+02  0.14567953649E+03 -0.13612298979E+01  0.14630051683E+03  0.47000000000E+01 0. -1.
          1    1    1    2  502    0 -0.41679385131E+02  0.24460285596E+02 -0.27346709266E+03  0.27770438867E+03  0.00000000000E+00 0. -1.
          3    1    1    2  503    0  0.20376654314E+02 -0.30068789954E+02  0.49278400386E+03  0.49412085023E+03  0.00000000000E+00 0. -1.
<mgrwt>
<rscale>  0 0.41799364E+02</rscale>
<asrwt>0</asrwt>
<pdfrwt beam="2">  1        2 0.11184204E+00 0.48101758E+02</pdfrwt>
<pdfrwt beam="1">  1        4 0.11794957E+00 0.36322723E+02</pdfrwt>
<totfact> 0.12019983E+01</totfact>
</mgrwt>
</event>
<event>
13    1  0.1595792E-008  0.1737092E+03  0.7546771E-02  0.1248817E+00
          2   -1    0    0  502    0  0.00000000000E+00  0.00000000000E+00  0.88344346399E+03  0.88344346399E+03  0.00000000000E+00 0. -1.
          2   -1    0    0  503    0 -0.00000000000E+00 -0.00000000000E+00 -0.17473835654E+04  0.17473835654E+04  0.00000000000E+00 0. -1.
         24    2    1    2    0    0 -0.99542670177E+02 -0.18918602538E+03 -0.10974690782E+03  0.25336559677E+03  0.80309690985E+02 0.  0.
         25    2    1    2    0    0  0.17931040621E+02  0.35007015477E+03 -0.14454700157E+03  0.39923565874E+03  0.12499856025E+03 0.  0.
         24    2    1    2    0    0 -0.58711530431E+02  0.32347241034E+02  0.13552660453E+03  0.17180178897E+03  0.81578222268E+02 0.  0.
        -13    1    3    3    0    0 -0.49629907417E+02 -0.26228207734E+02 -0.41363056374E+02  0.69727677602E+02  0.00000000000E+00 0.  1.
         14    1    3    3    0    0 -0.49912762760E+02 -0.16295781765E+03 -0.68383851449E+02  0.18363791917E+03  0.00000000000E+00 0. -1.
        -13    1    5    5    0    0 -0.19589463373E+02 -0.27611545153E+02  0.47674829760E+02  0.58472505450E+02  0.00000000000E+00 0.  1.
         14    1    5    5    0    0 -0.39122067058E+02  0.59958786187E+02  0.87851774772E+02  0.11332928352E+03  0.00000000000E+00 0. -1.
          5    1    4    4  501    0 -0.14289468274E+02  0.18371608111E+03 -0.13680042774E+03  0.22954789128E+03  0.47000000000E+01 0.  1.
         -5    1    4    4    0  501  0.32220508896E+02  0.16635407366E+03 -0.77465738241E+01  0.16968776746E+03  0.47000000000E+01 0.  1.
          1    1    1    2  502    0  0.70254464505E+02 -0.34489769172E+02  0.52179375238E+03  0.52763050896E+03  0.00000000000E+00 0. -1.
          1    1    1    2  503    0  0.70068695482E+02 -0.15874160126E+03 -0.12669665489E+04  0.12787934759E+04  0.00000000000E+00 0. -1.
<mgrwt>
<rscale>  0 0.11659827E+03</rscale>
<asrwt>0</asrwt>
<pdfrwt beam="1">  1        2 0.12991816E+00 0.78263874E+02</pdfrwt>
<pdfrwt beam="2">  1        2 0.25696817E+00 0.17370922E+03</pdfrwt>
<totfact> 0.62594679E+01</totfact>
</mgrwt>
</event>
<event>
13    1  0.1595792E-008  0.1057775E+03  0.7546771E-02  0.1411494E+00
         -3   -1    0    0    0  501 -0.00000000000E+00  0.00000000000E+00  0.29062099309E+04  0.29062099309E+04  0.00000000000E+00 0.  1.
          2   -1    0    0  503    0  0.00000000000E+00 -0.00000000000E+00 -0.19788729347E+04  0.19788729347E+04  0.00000000000E+00 0. -1.
         24    2    1    2    0    0 -0.16102815486E+03 -0.37413523522E+02  0.55427216844E+03  0.58400558808E+03  0.80715870826E+02 0.  0.
         25    2    1    2    0    0  0.14694530431E+03 -0.10017228731E+03  0.54332093324E+03  0.58519486519E+03  0.12501193606E+03 0.  0.
         24    2    1    2    0    0  0.56366411983E+02  0.15669935632E+02 -0.11479434792E+04  0.11520996377E+04  0.78336609369E+02 0.  0.
        -11    1    5    5    0    0  0.59068860617E+02  0.17411044519E+02 -0.45496920260E+03  0.45911790434E+03  0.00000000000E+00 0.  1.
         12    1    5    5    0    0 -0.27024486337E+01 -0.17411088867E+01 -0.69297427659E+03  0.69298173331E+03  0.00000000000E+00 0. -1.
        -11    1    3    3    0    0 -0.15143740463E+03 -0.37106635310E+02  0.39817481558E+03  0.42761357984E+03  0.00000000000E+00 0.  1.
         12    1    3    3    0    0 -0.95907502279E+01 -0.30688821282E+00  0.15609735286E+03  0.15639200824E+03  0.00000000000E+00 0. -1.
          5    1    4    4  502    0  0.70483970089E+02 -0.94259819203E+02  0.18948730594E+03  0.22311529008E+03  0.47000000000E+01 0. -1.
         -5    1    4    4    0  502  0.76461334218E+02 -0.59124681051E+01  0.35383362729E+03  0.36207957511E+03  0.47000000000E+01 0. -1.
          1    1    1    2  503    0 -0.23994432073E+02  0.18936559098E+02 -0.79120788384E+03  0.79179810652E+03  0.00000000000E+00 0. -1.
         -4    1    1    2    0  501 -0.18289129356E+02  0.10297931610E+03  0.17688952576E+04  0.17719846681E+04  0.00000000000E+00 0.  1.
<mgrwt>
<rscale>  0 0.56861897E+02</rscale>
<asrwt>0</asrwt>
<pdfrwt beam="2">  1        2 0.29101072E+00 0.30566747E+02</pdfrwt>
<pdfrwt beam="1">  1       -3 0.42738382E+00 0.10577754E+03</pdfrwt>
<totfact> 0.67828581E-02</totfact>
</mgrwt>
</event>
<event>
13    1  0.1595792E-008  0.8937766E+02  0.7546771E-02  0.1579548E+00
          2   -1    0    0  502    0  0.00000000000E+00  0.00000000000E+00  0.29436151111E+04  0.29436151111E+04  0.00000000000E+00 0. -1.
          2   -1    0    0  503    0 -0.00000000000E+00 -0.00000000000E+00 -0.29460650325E+04  0.29460650325E+04  0.00000000000E+00 0. -1.
         24    2    1    2    0    0 -0.25460041499E+03 -0.75070643097E+02 -0.71469538110E+03  0.76518964101E+03  0.65335489398E+02 0.  0.
         25    2    1    2    0    0 -0.82191014206E+02  0.67072761347E+03  0.40588807478E+03  0.79812367826E+03  0.12500152910E+03 0.  0.
         24    2    1    2    0    0  0.28161432158E+03 -0.65095636909E+03  0.98336974475E+03  0.12151437658E+04  0.80669052944E+02 0.  0.
        -11    1    5    5    0    0  0.61241472625E+02 -0.22580520765E+03  0.35342098186E+03  0.42384537297E+03  0.00000000000E+00 0.  1.
         12    1    5    5    0    0  0.22037284896E+03 -0.42515116144E+03  0.62994876290E+03  0.79129839284E+03  0.00000000000E+00 0. -1.
        -13    1    3    3    0    0 -0.95645515014E+02 -0.57672192589E+02 -0.33748772099E+03  0.35548854856E+03  0.00000000000E+00 0.  1.
         14    1    3    3    0    0 -0.15895489998E+03 -0.17398450508E+02 -0.37720766011E+03  0.40970109245E+03  0.00000000000E+00 0. -1.
          5    1    4    4  501    0 -0.11189136271E+03  0.43131435733E+03  0.25202732462E+03  0.51194883948E+03  0.47000000000E+01 0.  1.
         -5    1    4    4    0  501  0.29700348503E+02  0.23941325613E+03  0.15386075016E+03  0.28617483878E+03  0.47000000000E+01 0.  1.
          1    1    1    2  502    0 -0.75893647404E+01 -0.83399391824E+01  0.12160246669E+04  0.12160769480E+04  0.00000000000E+00 0. -1.
          1    1    1    2  503    0  0.62766472358E+02  0.63639337901E+02 -0.18930370267E+04  0.18951461105E+04  0.00000000000E+00 0. -1.
<mgrwt>
<rscale>  0 0.31746524E+02</rscale>
<asrwt>0</asrwt>
<pdfrwt beam="1">  1        2 0.43288457E+00 0.11276216E+02</pdfrwt>
<pdfrwt beam="2">  1        2 0.43324486E+00 0.89377659E+02</pdfrwt>
<totfact> 0.22410072E+00</totfact>
</mgrwt>
</event>
<event>
13    1  0.1595792E-008  0.5989463E+02  0.7546771E-02  0.1473240E+00
          2   -1    0    0  502    0  0.00000000000E+00  0.00000000000E+00  0.11147536017E+04  0.11147536017E+04  0.00000000000E+00 0. -1.
          4   -1    0    0  503    0 -0.00000000000E+00 -0.00000000000E+00 -0.92819953566E+02  0.92819953566E+02  0.00000000000E+00 0. -1.
         24    2    1    2    0    0  0.89243775119E+00  0.50642294315E+01  0.28588972834E+02  0.86762844656E+02  0.81755849823E+02 0.  0.
         25    2    1    2    0    0 -0.18777374783E+02 -0.75578951216E+02  0.14503088587E+03  0.20669551246E+03  0.12499723735E+03 0.  0.
         24    2    1    2    0    0 -0.13704461593E+02  0.26693836992E+02  0.15540256956E+03  0.17715037353E+03  0.79573381327E+02 0.  0.
        -13    1    3    3    0    0 -0.19464396141E+01  0.30595613273E+02  0.46321771525E+02  0.55548057536E+02  0.00000000000E+00 0.  1.
         14    1    3    3    0    0  0.28388773653E+01 -0.25531383841E+02 -0.17732798692E+02  0.31214787121E+02  0.00000000000E+00 0. -1.
        -13    1    5    5    0    0 -0.23099181668E+02 -0.30336839375E+01  0.53642079812E+01  0.23907115243E+02  0.00000000000E+00 0.  1.
         14    1    5    5    0    0  0.93947200756E+01  0.29727520930E+02  0.15003836157E+03  0.15324325829E+03  0.00000000000E+00 0. -1.
          5    1    4    4  501    0 -0.89751167301E+01 -0.61452931812E+01  0.13521573923E+03  0.13573394375E+03  0.47000000000E+01 0. -1.
         -5    1    4    4    0  501 -0.98022580531E+01 -0.69433658035E+02  0.98151466355E+01  0.70961568715E+02  0.47000000000E+01 0. -1.
          1    1    1    2  502    0 -0.25899995900E+02  0.22143666881E+02  0.67080274462E+03  0.67166768119E+03  0.00000000000E+00 0. -1.
          3    1    1    2  503    0  0.57489394524E+02  0.21677217912E+02  0.22108475230E+02  0.65297143400E+02  0.00000000000E+00 0. -1.
<mgrwt>
<rscale>  0 0.45176876E+02</rscale>
<asrwt>0</asrwt>
<pdfrwt beam="1">  1        2 0.16393435E+00 0.34075677E+02</pdfrwt>
<pdfrwt beam="2">  1        4 0.13649994E-01 0.59894632E+02</pdfrwt>
<totfact> 0.54052535E+02</totfact>
</mgrwt>
</event>
<event>
13    1  0.1595792E-008  0.1228926E+03  0.7546771E-02  0.1349968E+00
          2   -1    0    0  502    0  0.00000000000E+00  0.00000000000E+00  0.23172748103E+04  0.23172748103E+04  0.00000000000E+00 0. -1.
          2   -1    0    0  503    0 -0.00000000000E+00 -0.00000000000E+00 -0.76808479164E+03  0.76808479164E+03  0.00000000000E+00 0. -1.
         24    2    1    2    0    0  0.79130723733E+02  0.11972621321E+03 -0.30119284500E+03  0.34392331256E+03  0.83486989867E+02 0.  0.
         25    2    1    2    0    0  0.52809983938E+02 -0.18726355562E+03  0.11255834492E+04  0.11490949412E+04  0.12499819673E+03 0.  0.
         24    2    1    2    0    0  0.85403565683E+01 -0.20666060691E+02  0.29920066992E+03  0.31029485922E+03  0.79131757364E+02 0.  0.
        -11    1    3    3    0    0  0.93332006899E+02  0.86941637147E+02 -0.20654061601E+03  0.24275242088E+03  0.00000000000E+00 0.  1.
         12    1    3    3    0    0 -0.14201283166E+02  0.32784576064E+02 -0.94652228982E+02  0.10117089168E+03  0.00000000000E+00 0. -1.
        -13    1    5    5    0    0  0.10178904769E+02 -0.49852086691E+02  0.22172160384E+03  0.22748474731E+03  0.00000000000E+00 0.  1.
         14    1    5    5    0    0 -0.16385482003E+01  0.29186026000E+02  0.77479066078E+02  0.82810111908E+02  0.00000000000E+00 0. -1.
          5    1    4    4  501    0  0.26522883897E+02 -0.11681511776E+03  0.95653654831E+03  0.96401944656E+03  0.47000000000E+01 0. -1.
         -5    1    4    4    0  501  0.26287100041E+02 -0.70448437855E+02  0.16904690089E+03  0.18507549467E+03  0.47000000000E+01 0. -1.
          1    1    1    2  502    0 -0.38845696916E+02  0.19445812067E+02  0.84446224712E+03  0.84557886362E+03  0.00000000000E+00 0. -1.
          1    1    1    2  503    0 -0.10163536732E+03  0.68757591032E+02 -0.41886350254E+03  0.43646762535E+03  0.00000000000E+00 0. -1.
<mgrwt>
<rscale>  0 0.73065632E+02</rscale>
<asrwt>0</asrwt>
<pdfrwt beam="1">  1        2 0.34077571E+00 0.43441084E+02</pdfrwt>
<pdfrwt beam="2">  1        2 0.11295365E+00 0.12289257E+03</pdfrwt>
<totfact> 0.45179792E+01</totfact>
</mgrwt>
</event>
<event>
13    1  0.1595792E-008  0.6176633E+02  0.7546771E-02  0.1433629E+00
          2   -1    0    0  502    0  0.00000000000E+00  0.00000000000E+00  0.10927620839E+04  0.10927620839E+04  0.00000000000E+00 0. -1.
          2   -1    0    0  503    0 -0.00000000000E+00 -0.00000000000E+00 -0.76448329802E+03  0.76448329802E+03  0.00000000000E+00 0. -1.
         24    2    1    2    0    0  0.11258643478E+02 -0.79901671381E+02 -0.77199974512E+01  0.11360703586E+03  0.79598530722E+02 0.  0.
         25    2    1    2    0    0 -0.41784701715E+02  0.53663033595E+02  0.11623143963E+03  0.18374150850E+03  0.12500204765E+03 0.  0.
         24    2    1    2    0    0 -0.60945848086E+02  0.64580477584E+02  0.14714989078E+03  0.18910191138E+03  0.78875902835E+02 0.  0.
        -11    1    3    3    0    0  0.68055944941E+01  0.12942813271E+02  0.11604771112E+02  0.18668241597E+02  0.00000000000E+00 0.  1.
         12    1    3    3    0    0  0.44530489842E+01 -0.92844484651E+02 -0.19324768563E+02  0.94938794259E+02  0.00000000000E+00 0. -1.
        -13    1    5    5    0    0 -0.56610267723E+02  0.29812766170E+01  0.77486912315E+02  0.96009541203E+02  0.00000000000E+00 0.  1.
         14    1    5    5    0    0 -0.43355803621E+01  0.61599200967E+02  0.69662978462E+02  0.93092370176E+02  0.00000000000E+00 0. -1.
          5    1    4    4  501    0 -0.44274730025E+02  0.77961572179E+02  0.12790135478E+03  0.15626613520E+03  0.47000000000E+01 0. -1.
         -5    1    4    4    0  501  0.24900283102E+01 -0.24298538584E+02 -0.11669915155E+02  0.27475373301E+02  0.47000000000E+01 0. -1.
          1    1    1    2  502    0  0.44164712367E+02  0.11677979471E+01  0.71956395161E+03  0.72091897327E+03  0.00000000000E+00 0. -1.
          1    1    1    2  503    0  0.47307193956E+02 -0.39509637746E+02 -0.64694649866E+03  0.64987595294E+03  0.00000000000E+00 0. -1.
<mgrwt>
<rscale>  0 0.52238354E+02</rscale>
<asrwt>0</asrwt>
<pdfrwt beam="1">  1        2 0.16070031E+00 0.44180149E+02</pdfrwt>
<pdfrwt beam="2">  1        2 0.11242401E+00 0.61766330E+02</pdfrwt>
<totfact> 0.17706434E+02</totfact>
</mgrwt>
</event>
<event>
13    1  0.1595792E-008  0.1487394E+03  0.7546771E-02  0.1279275E+00
          2   -1    0    0  502    0  0.00000000000E+00  0.00000000000E+00  0.25726988213E+04  0.25726988213E+04  0.00000000000E+00 0. -1.
          2   -1    0    0  503    0 -0.00000000000E+00 -0.00000000000E+00 -0.21609314925E+04  0.21609314925E+04  0.00000000000E+00 0. -1.
         24    2    1    2    0    0  0.81454306590E+02 -0.88765032769E+01 -0.32606175935E+03  0.34555535780E+03  0.79866376044E+02 0.  0.
         25    2    1    2    0    0  0.37942306052E+02 -0.14854670523E+03  0.33686817176E+03  0.39065698759E+03  0.12500789810E+03 0.  0.
         24    2    1    2    0    0 -0.10116545404E+03  0.15784868958E+02  0.27473524916E+03  0.30402830521E+03  0.80437193275E+02 0.  0.
        -13    1    5    5    0    0 -0.11175305548E+02 -0.83236738494E+00  0.14406758296E+03  0.14450276381E+03  0.00000000000E+00 0.  1.
         14    1    5    5    0    0 -0.89990148494E+02  0.16617236343E+02  0.13066766619E+03  0.15952554140E+03  0.00000000000E+00 0. -1.
        -13    1    3    3    0    0  0.87491490044E+02 -0.20129845133E+02 -0.20467964749E+03  0.22350331002E+03  0.00000000000E+00 0.  1.
         14    1    3    3    0    0 -0.60371834538E+01  0.11253341856E+02 -0.12138211186E+03  0.12205204778E+03  0.00000000000E+00 0. -1.
          5    1    4    4  501    0  0.70343852279E+02 -0.14465972919E+03  0.24569406227E+03  0.29370454037E+03  0.47000000000E+01 0. -1.
         -5    1    4    4    0  501 -0.32401546228E+02 -0.38869760434E+01  0.91174109488E+02  0.96952447218E+02  0.47000000000E+01 0. -1.
          1    1    1    2  502    0  0.99070169071E+02  0.11917985838E+03  0.19046573544E+04  0.19109522167E+04  0.00000000000E+00 0. -1.
          1    1    1    2  503    0 -0.11730132767E+03  0.22458481165E+02 -0.17784316871E+04  0.17824374464E+04  0.00000000000E+00 0. -1.
<mgrwt>
<rscale>  0 0.10048687E+03</rscale>
<asrwt>0</asrwt>
<pdfrwt beam="1">  1        2 0.37833807E+00 0.14873938E+03</pdfrwt>
<pdfrwt beam="2">  1        2 0.31778404E+00 0.67887943E+02</pdfrwt>
<totfact> 0.56973176E+00</totfact>
</mgrwt>
</event>
<event>
13    1  0.1595792E-008  0.5286997E+02  0.7546771E-02  0.1497169E+00
          2   -1    0    0  503    0  0.00000000000E+00  0.00000000000E+00  0.68644883817E+03  0.68644883817E+03  0.00000000000E+00 0. -1.
          2   -1    0    0  502    0 -0.00000000000E+00 -0.00000000000E+00 -0.11698501372E+04  0.11698501372E+04  0.00000000000E+00 0. -1.
         24    2    1    2    0    0  0.36237629913E+02  0.17904109839E+02 -0.24668010845E+03  0.26152915593E+03  0.76894086414E+02 0.  0.
         25    2    1    2    0    0  0.93794718477E+02  0.28410067828E+02  0.29540958307E+03  0.33540436445E+03  0.12499873900E+03 0.  0.
         24    2    1    2    0    0 -0.67955065196E+02  0.28191579044E+01  0.21239324283E+03  0.23621628279E+03  0.77855019867E+02 0.  0.
        -11    1    5    5    0    0 -0.55244815155E+02  0.36879411202E+02  0.12473728682E+03  0.14132045604E+03  0.00000000000E+00 0.  1.
         12    1    5    5    0    0 -0.12710250041E+02 -0.34060253297E+02  0.87655956003E+02  0.94895826745E+02  0.00000000000E+00 0. -1.
        -11    1    3    3    0    0  0.23243782848E+02  0.15298245859E+02 -0.19537690815E+02  0.34000457788E+02  0.00000000000E+00 0.  1.
         12    1    3    3    0    0  0.12993847065E+02  0.26058639801E+01 -0.22714241764E+03  0.22752869814E+03  0.00000000000E+00 0. -1.
          5    1    4    4  501    0  0.92385258199E+02  0.47704011958E+01  0.29709720654E+03  0.31120191644E+03  0.47000000000E+01 0.  1.
         -5    1    4    4    0  501  0.14094602781E+01  0.23639666632E+02 -0.16876234672E+01  0.24202448011E+02  0.47000000000E+01 0.  1.
          1    1    1    2  502    0 -0.49257414149E+02 -0.19116924390E+02 -0.88112251340E+03  0.88270529242E+03  0.00000000000E+00 0. -1.
          1    1    1    2  503    0 -0.12819869045E+02 -0.30016411181E+02  0.13659849697E+03  0.14044387974E+03  0.00000000000E+00 0. -1.
<mgrwt>
<rscale>  0 0.41540907E+02</rscale>
<asrwt>0</asrwt>
<pdfrwt beam="1">  1        2 0.10094836E+00 0.32639454E+02</pdfrwt>
<pdfrwt beam="2">  1        2 0.17203678E+00 0.52869968E+02</pdfrwt>
<totfact> 0.18356053E+02</totfact>
</mgrwt>
</event>
<event>
13    1  0.1595792E-008  0.5769426E+02  0.7546771E-02  0.1435214E+00
          2   -1    0    0  502    0  0.00000000000E+00  0.00000000000E+00  0.12506533781E+04  0.12506533781E+04  0.00000000000E+00 0. -1.
          2   -1    0    0  503    0 -0.00000000000E+00 -0.00000000000E+00 -0.72762395556E+03  0.72762395556E+03  0.00000000000E+00 0. -1.
         24    2    1    2    0    0  0.59920829263E+02  0.15426598431E+03 -0.46727000991E+03  0.50228821524E+03  0.81016599029E+02 0.  0.
         25    2    1    2    0    0 -0.73705661372E+02  0.17665520609E+02  0.14361251814E+03  0.20492403568E+03  0.12499883958E+03 0.  0.
         24    2    1    2    0    0  0.42912964770E+01 -0.73377721643E+02  0.31211811976E+03  0.33060052781E+03  0.80475356759E+02 0.  0.
        -11    1    3    3    0    0  0.53237292925E+00  0.11013825439E+03 -0.27006708967E+03  0.29166239289E+03  0.00000000000E+00 0.  1.
         12    1    3    3    0    0  0.59388456333E+02  0.44127729922E+02 -0.19720292024E+03  0.21062582236E+03  0.00000000000E+00 0. -1.
        -11    1    5    5    0    0 -0.35582498814E+02 -0.41968214067E+02  0.12219474533E+03  0.13401119729E+03  0.00000000000E+00 0.  1.
         12    1    5    5    0    0  0.39873795291E+02 -0.31409507577E+02  0.18992337444E+03  0.19658933052E+03  0.00000000000E+00 0. -1.
          5    1    4    4  501    0 -0.55455914298E+02 -0.49507399418E+02  0.57516088429E+02  0.94109146505E+02  0.47000000000E+01 0.  1.
         -5    1    4    4    0  501 -0.18249747074E+02  0.67172920027E+02  0.86096429716E+02  0.11081488918E+03  0.47000000000E+01 0.  1.
          1    1    1    2  502    0 -0.11755119753E+02 -0.45234630293E+02  0.73269894609E+03  0.73418805508E+03  0.00000000000E+00 0. -1.
          1    1    1    2  503    0  0.21248655385E+02 -0.53319152983E+02 -0.19813015156E+03  0.20627649984E+03  0.00000000000E+00 0. -1.
<mgrwt>
<rscale>  0 0.51927459E+02</rscale>
<asrwt>0</asrwt>
<pdfrwt beam="1">  1        2 0.18391961E+00 0.46737080E+02</pdfrwt>
<pdfrwt beam="2">  1        2 0.10700352E+00 0.57694255E+02</pdfrwt>
<totfact> 0.15525860E+02</totfact>
</mgrwt>
</event>
<event>
13    1  0.1595792E-008  0.4510000E+02  0.7546771E-02  0.1580314E+00
         -1   -1    0    0    0  501 -0.00000000000E+00  0.00000000000E+00  0.35654957433E+03  0.35654957433E+03  0.00000000000E+00 0.  1.
          2   -1    0    0  503    0  0.00000000000E+00 -0.00000000000E+00 -0.19602893115E+04  0.19602893115E+04  0.00000000000E+00 0. -1.
         24    2    1    2    0    0  0.17646563859E+03  0.28019170508E+03 -0.32212774236E+02  0.34230863348E+03  0.80560688514E+02 0.  0.
         25    2    1    2    0    0 -0.60452327893E+02 -0.24682321691E+03 -0.70155640785E+03  0.75655914040E+03  0.12499662064E+03 0.  0.
         24    2    1    2    0    0 -0.10110492901E+03 -0.58355003175E+01 -0.17122117877E+03  0.21453488465E+03  0.80325991680E+02 0.  0.
        -13    1    3    3    0    0  0.16201309142E+03  0.19665915863E+03 -0.11594497930E+02  0.25506371527E+03  0.00000000000E+00 0.  1.
         14    1    3    3    0    0  0.14452547167E+02  0.83532546448E+02 -0.20618276306E+02  0.87244918210E+02  0.00000000000E+00 0. -1.
        -13    1    5    5    0    0  0.92005089929E+01  0.12219696582E+02 -0.97052638978E+01  0.18115255936E+02  0.00000000000E+00 0.  1.
         14    1    5    5    0    0 -0.11030543801E+03 -0.18055196899E+02 -0.16151591487E+03  0.19641962872E+03  0.00000000000E+00 0. -1.
          5    1    4    4  502    0  0.15902844607E+01  0.12396936508E+02 -0.66354818041E+02  0.67685042045E+02  0.47000000000E+01 0. -1.
         -5    1    4    4    0  502 -0.62042612354E+02 -0.25922015342E+03 -0.63520158981E+03  0.68887409835E+03  0.47000000000E+01 0. -1.
          1    1    1    2  503    0 -0.37079264756E+02 -0.25761961813E+02 -0.84967842562E+03  0.85087718121E+03  0.00000000000E+00 0. -1.
         -2    1    1    2    0  501  0.22170883077E+02 -0.17710260347E+01  0.15092904935E+03  0.15255904604E+03  0.00000000000E+00 0.  1.
<mgrwt>
<rscale>  0 0.31671627E+02</rscale>
<asrwt>0</asrwt>
<pdfrwt beam="2">  1        2 0.28827784E+00 0.45100001E+02</pdfrwt>
<pdfrwt beam="1">  1       -1 0.52433761E-01 0.22241506E+02</pdfrwt>
<totfact> 0.45736319E+01</totfact>
</mgrwt>
</event>
<event>
13    1  0.1595792E-008  0.8556742E+02  0.7546771E-02  0.1597108E+00
          2   -1    0    0  502    0  0.00000000000E+00  0.00000000000E+00  0.11266990081E+04  0.11266990081E+04  0.00000000000E+00 0. -1.
          2   -1    0    0  503    0 -0.00000000000E+00 -0.00000000000E+00 -0.10311490142E+04  0.10311490142E+04  0.00000000000E+00 0. -1.
         24    2    1    2    0    0  0.79650598452E+02 -0.78580484609E+01 -0.26537911849E+03  0.28852440528E+03  0.80089257391E+02 0.  0.
         25    2    1    2    0    0  0.28418984684E+03  0.32799271207E+02 -0.20121950050E+03  0.37142103959E+03  0.12499856011E+03 0.  0.
         24    2    1    2    0    0 -0.27094165429E+03 -0.45984670025E+02  0.14371746029E+03  0.32016821281E+03  0.79555051348E+02 0.  0.
        -11    1    5    5    0    0 -0.49344260476E+02  0.22263350674E+02  0.23975516602E+02  0.59205896847E+02  0.00000000000E+00 0.  1.
         12    1    5    5    0    0 -0.22159739382E+03 -0.68248020699E+02  0.11974194369E+03  0.26096231596E+03  0.00000000000E+00 0. -1.
        -13    1    3    3    0    0  0.70927886619E+02 -0.35149776481E+02 -0.22849980225E+03  0.24182314099E+03  0.00000000000E+00 0.  1.
         14    1    3    3    0    0  0.87227118334E+01  0.27291728020E+02 -0.36879316237E+02  0.46701264289E+02  0.00000000000E+00 0. -1.
          5    1    4    4  501    0  0.27233819420E+03  0.13764607265E+02 -0.14105931000E+03  0.30704621048E+03  0.47000000000E+01 0. -1.
         -5    1    4    4    0  501  0.11851652638E+02  0.19034663942E+02 -0.60160190499E+02  0.64374829107E+02  0.47000000000E+01 0. -1.
          1    1    1    2  502    0 -0.84206098589E+02  0.15011601603E+02  0.79571663454E+03  0.80030055461E+03  0.00000000000E+00 0. -1.
          1    1    1    2  503    0 -0.86926924074E+01  0.60318456757E+01 -0.37728548191E+03  0.37743380999E+03  0.00000000000E+00 0. -1.
<mgrwt>
<rscale>  0 0.30088908E+02</rscale>
<asrwt>0</asrwt>
<pdfrwt beam="1">  1        2 0.16569103E+00 0.85567421E+02</pdfrwt>
<pdfrwt beam="2">  1        2 0.15163956E+00 0.10580457E+02</pdfrwt>
<totfact> 0.12450868E+02</totfact>
</mgrwt>
</event>
<event>
13    1  0.1595792E-008  0.6344295E+02  0.7546771E-02  0.1530859E+00
         -1   -1    0    0    0  501 -0.00000000000E+00  0.00000000000E+00  0.17940220706E+03  0.17940220706E+03  0.00000000000E+00 0.  1.
          2   -1    0    0  503    0  0.00000000000E+00 -0.00000000000E+00 -0.18839290248E+04  0.18839290248E+04  0.00000000000E+00 0. -1.
         24    2    1    2    0    0 -0.83025657885E+02 -0.79632121040E+02  0.10969088810E+01  0.14282195155E+03  0.84630798568E+02 0.  0.
         25    2    1    2    0    0  0.31568416784E+03  0.92456790458E+01 -0.10099665261E+04  0.10655510547E+04  0.12499876005E+03 0.  0.
         24    2    1    2    0    0 -0.15997771427E+03  0.50508263630E+02 -0.58001407419E+03  0.60895986073E+03  0.79194898662E+02 0.  0.
        -11    1    3    3    0    0 -0.86705168489E+02 -0.70057406455E+02  0.27229183307E+02  0.11474865954E+03  0.00000000000E+00 0.  1.
         12    1    3    3    0    0  0.36795106041E+01 -0.95747145858E+01 -0.26132274426E+02  0.28073292011E+02  0.00000000000E+00 0. -1.
        -13    1    5    5    0    0 -0.12453232129E+03  0.21277056893E+02 -0.30493266006E+03  0.33006808293E+03  0.00000000000E+00 0.  1.
         14    1    5    5    0    0 -0.35445392980E+02  0.29231206737E+02 -0.27508141413E+03  0.27889177781E+03  0.00000000000E+00 0. -1.
          5    1    4    4  502    0  0.26970142919E+03  0.90463104723E+01 -0.96114352814E+03  0.99831842031E+03  0.47000000000E+01 0.  1.
         -5    1    4    4    0  502  0.45982738651E+02  0.19936857351E+00 -0.48822997907E+02  0.67232634385E+02  0.47000000000E+01 0.  1.
          1    1    1    2  503    0 -0.93241932595E+01  0.19565052463E+02 -0.16454341147E+03  0.16596465322E+03  0.00000000000E+00 0. -1.
         -2    1    1    2    0  501 -0.63356602420E+02  0.31312590159E+00  0.48900285099E+02  0.80033711652E+02  0.00000000000E+00 0.  1.
<mgrwt>
<rscale>  0 0.37081235E+02</rscale>
<asrwt>0</asrwt>
<pdfrwt beam="2">  1        2 0.27704839E+00 0.21673298E+02</pdfrwt>
<pdfrwt beam="1">  1       -1 0.26382677E-01 0.63442950E+02</pdfrwt>
<totfact> 0.17324553E+02</totfact>
</mgrwt>
</event>
<event>
13    1  0.1595792E-008  0.1678409E+03  0.7546771E-02  0.1338604E+00
          2   -1    0    0  503    0  0.00000000000E+00  0.00000000000E+00  0.29997262040E+04  0.29997262040E+04  0.00000000000E+00 0. -1.
          2   -1    0    0  502    0 -0.00000000000E+00 -0.00000000000E+00 -0.12501369267E+04  0.12501369267E+04  0.00000000000E+00 0. -1.
         24    2    1    2    0    0  0.13157140537E+02 -0.32268368899E+02 -0.37811063330E+03  0.38852521548E+03  0.82279001393E+02 0.  0.
         25    2    1    2    0    0  0.41263620047E+02  0.12787391614E+03 -0.36671600062E+03  0.41007041392E+03  0.12499077761E+03 0.  0.
         24    2    1    2    0    0  0.43005758359E+02 -0.27099398633E+03 -0.21426633508E+03  0.35715916221E+03  0.79783262178E+02 0.  0.
        -11    1    5    5    0    0  0.31753195949E+01 -0.17392988341E+03 -0.17016996468E+03  0.24335057814E+03  0.00000000000E+00 0.  1.
         12    1    5    5    0    0  0.39830438764E+02 -0.97064102917E+02 -0.44096370397E+02  0.11380858408E+03  0.00000000000E+00 0. -1.
        -13    1    3    3    0    0  0.47085004055E+02 -0.25903676526E+02 -0.25882664126E+03  0.26434679550E+03  0.00000000000E+00 0.  1.
         14    1    3    3    0    0 -0.33927863518E+02 -0.63646923730E+01 -0.11928399204E+03  0.12417841998E+03  0.00000000000E+00 0. -1.
          5    1    4    4  501    0  0.75957773333E+02  0.12544350047E+03 -0.27179666401E+03  0.30887080099E+03  0.47000000000E+01 0. -1.
         -5    1    4    4    0  501 -0.34694153286E+02  0.24304156741E+01 -0.94919336614E+02  0.10119961292E+03  0.47000000000E+01 0. -1.
          1    1    1    2  502    0 -0.26076763865E+02  0.23458238361E+02 -0.18866772376E+03  0.19190048606E+03  0.00000000000E+00 0. -1.
          1    1    1    2  503    0 -0.71349755078E+02  0.15193020073E+03  0.28973499701E+04  0.29022078531E+04  0.00000000000E+00 0. -1.
<mgrwt>
<rscale>  0 0.76727409E+02</rscale>
<asrwt>0</asrwt>
<pdfrwt beam="1">  1        2 0.44113621E+00 0.16784095E+03</pdfrwt>
<pdfrwt beam="2">  1        2 0.18384367E+00 0.35075441E+02</pdfrwt>
<totfact> 0.95862012E+00</totfact>
</mgrwt>
</event>
<event>
13    1  0.1595792E-008  0.1801064E+03  0.7546771E-02  0.1286740E+00
          2   -1    0    0  503    0  0.00000000000E+00  0.00000000000E+00  0.26498013206E+04  0.26498013206E+04  0.00000000000E+00 0. -1.
          2   -1    0    0  502    0 -0.00000000000E+00 -0.00000000000E+00 -0.26588690624E+04  0.26588690624E+04  0.00000000000E+00 0. -1.
         24    2    1    2    0    0 -0.10422500795E+02 -0.31394519422E+02 -0.25942521176E+03  0.27377984809E+03  0.80992100570E+02 0.  0.
         25    2    1    2    0    0 -0.52429053637E+02  0.14731933008E+02 -0.39754690325E+03  0.42027766782E+03  0.12499576901E+03 0.  0.
         24    2    1    2    0    0 -0.14637891623E+03  0.12595106429E+02  0.23615004027E+03  0.28916446680E+03  0.79144320847E+02 0.  0.
        -13    1    5    5    0    0 -0.73070896089E+01  0.22745785742E+02  0.59453846439E+02  0.64074364484E+02  0.00000000000E+00 0.  1.
         14    1    5    5    0    0 -0.13907182662E+03 -0.10150679313E+02  0.17669619383E+03  0.22509010232E+03  0.00000000000E+00 0. -1.
        -13    1    3    3    0    0 -0.25605308200E+02  0.20407113728E+02 -0.80993202718E+02  0.87361209843E+02  0.00000000000E+00 0.  1.
         14    1    3    3    0    0  0.15182807404E+02 -0.51801633151E+02 -0.17843200904E+03  0.18641863825E+03  0.00000000000E+00 0. -1.
          5    1    4    4  501    0  0.38410427379E+02 -0.13661213424E+02 -0.11661250028E+03  0.12362263104E+03  0.47000000000E+01 0.  1.
         -5    1    4    4    0  501 -0.90839481015E+02  0.28393146432E+02 -0.28093440297E+03  0.29665503678E+03  0.47000000000E+01 0.  1.
          1    1    1    2  502    0  0.29583466290E+02 -0.43054409824E+02 -0.19528565113E+04  0.19535550715E+04  0.00000000000E+00 0. -1.
          1    1    1    2  503    0  0.17964700437E+03  0.47121889809E+02  0.23646108442E+04  0.23718933288E+04  0.00000000000E+00 0. -1.
<mgrwt>
<rscale>  0 0.96997377E+02</rscale>
<asrwt>0</asrwt>
<pdfrwt beam="1">  1        2 0.38967666E+00 0.18010637E+03</pdfrwt>
<pdfrwt beam="2">  1        2 0.39101016E+00 0.52238527E+02</pdfrwt>
<totfact> 0.30247473E+00</totfact>
</mgrwt>
</event>
<event>
13    1  0.1595792E-008  0.9196411E+02  0.7546771E-02  0.1431419E+00
          2   -1    0    0  503    0  0.00000000000E+00  0.00000000000E+00  0.16598727817E+04  0.16598727817E+04  0.00000000000E+00 0. -1.
          2   -1    0    0  502    0 -0.00000000000E+00 -0.00000000000E+00 -0.27044204244E+04  0.27044204244E+04  0.00000000000E+00 0. -1.
         24    2    1    2    0    0  0.19546239937E+02  0.12212349726E+02 -0.96737211509E+02  0.12658612302E+03  0.78324718121E+02 0.  0.
         25    2    1    2    0    0 -0.20033653275E+03 -0.22632859427E+01  0.28338048315E+01  0.23616239284E+03  0.12499918609E+03 0.  0.
         24    2    1    2    0    0  0.18472270617E+03 -0.83537155521E+02  0.22623965930E+03  0.31441746236E+03  0.81074180050E+02 0.  0.
        -11    1    5    5    0    0  0.59504110815E+02 -0.66856883880E+00  0.28099725109E+02  0.65808667662E+02  0.00000000000E+00 0.  1.
         12    1    5    5    0    0  0.12521859535E+03 -0.82868586682E+02  0.19813993419E+03  0.24860879470E+03  0.00000000000E+00 0. -1.
        -13    1    3    3    0    0 -0.24449590333E+02  0.17296874824E+01 -0.69721387749E+02  0.73904304312E+02  0.00000000000E+00 0.  1.
         14    1    3    3    0    0  0.43995830269E+02  0.10482662243E+02 -0.27015823761E+02  0.52681818707E+02  0.00000000000E+00 0. -1.
          5    1    4    4  501    0 -0.14239620333E+02 -0.26523008291E+02 -0.33138651740E+02  0.45016630207E+02  0.47000000000E+01 0. -1.
         -5    1    4    4    0  501 -0.18609691242E+03  0.24259722348E+02  0.35972456571E+02  0.19114576263E+03  0.47000000000E+01 0. -1.
          1    1    1    2  502    0 -0.27558846055E+02  0.92354128547E+02 -0.24308691736E+04  0.24327790105E+04  0.00000000000E+00 0. -1.
          1    1    1    2  503    0  0.23626432702E+02 -0.18766036809E+02  0.12539852782E+04  0.12543482174E+04  0.00000000000E+00 0. -1.
<mgrwt>
<rscale>  0 0.52676142E+02</rscale>
<asrwt>0</asrwt>
<pdfrwt beam="1">  1        2 0.24409894E+00 0.30172379E+02</pdfrwt>
<pdfrwt beam="2">  1        2 0.39770888E+00 0.91964110E+02</pdfrwt>
<totfact> 0.96994944E+00</totfact>
</mgrwt>
</event>
<event>
13    1  0.1595792E-008  0.6841283E+02  0.7546771E-02  0.1418589E+00
          2   -1    0    0  502    0  0.00000000000E+00  0.00000000000E+00  0.23191250839E+04  0.23191250839E+04  0.00000000000E+00 0. -1.
          2   -1    0    0  503    0 -0.00000000000E+00 -0.00000000000E+00 -0.35040595356E+04  0.35040595356E+04  0.00000000000E+00 0. -1.
         24    2    1    2    0    0 -0.18481163255E+02 -0.62429325009E+03 -0.10067114524E+04  0.11876887197E+04  0.83981729971E+02 0.  0.
         25    2    1    2    0    0  0.31036579657E+02  0.34394253660E+03 -0.28428141641E+03  0.46443785890E+03  0.12500745300E+03 0.  0.
         24    2    1    2    0    0 -0.25445407103E+01  0.25800606407E+03  0.61821379909E+03  0.67476986978E+03  0.80947340866E+02 0.  0.
        -11    1    3    3    0    0 -0.21238266648E+01 -0.26027050880E+03 -0.49826574325E+03  0.56215122458E+03  0.00000000000E+00 0.  1.
         12    1    3    3    0    0 -0.16357336590E+02 -0.36402274129E+03 -0.50844570911E+03  0.62553749508E+03  0.00000000000E+00 0. -1.
        -11    1    5    5    0    0  0.29181144138E+02  0.10984381561E+03  0.33212849850E+03  0.35103638347E+03  0.00000000000E+00 0.  1.
         12    1    5    5    0    0 -0.31725684848E+02  0.14816224846E+03  0.28608530059E+03  0.32373348632E+03  0.00000000000E+00 0. -1.
          5    1    4    4  501    0 -0.83230123906E+01  0.29554091104E+03 -0.19064899136E+03  0.35182784219E+03  0.47000000000E+01 0. -1.
         -5    1    4    4    0  501  0.39359592048E+02  0.48401625559E+02 -0.93632425045E+02  0.11261001671E+03  0.47000000000E+01 0. -1.
          1    1    1    2  502    0 -0.14758670720E+02  0.66825740020E+02  0.14910318202E+04  0.14926015499E+04  0.00000000000E+00 0. -1.
          1    1    1    2  503    0  0.47477950286E+01 -0.44481090595E+02 -0.20031872022E+04  0.20036866213E+04  0.00000000000E+00 0. -1.
<mgrwt>
<rscale>  0 0.55320548E+02</rscale>
<asrwt>0</asrwt>
<pdfrwt beam="1">  1        2 0.34104781E+00 0.68412833E+02</pdfrwt>
<pdfrwt beam="2">  1        2 0.51530287E+00 0.44733757E+02</pdfrwt>
<totfact> 0.18456046E+00</totfact>
</mgrwt>
</event>
<event>
13    1  0.1595792E-008  0.1536588E+03  0.7546771E-02  0.1270661E+00
          2   -1    0    0  503    0  0.00000000000E+00  0.00000000000E+00  0.36420386589E+04  0.36420386589E+04  0.00000000000E+00 0. -1.
          2   -1    0    0  502    0 -0.00000000000E+00 -0.00000000000E+00 -0.19787162585E+04  0.19787162585E+04  0.00000000000E+00 0. -1.
         24    2    1    2    0    0  0.20408559644E+02  0.68757380404E+03 -0.28839798452E+03  0.74967490667E+03  0.75265017855E+02 0.  0.
         25    2    1    2    0    0 -0.53599360958E+02 -0.53406701255E+03  0.44749678568E+03  0.70991433847E+03  0.12499811751E+03 0.  0.
         24    2    1    2    0    0 -0.28901347342E+01 -0.22655946023E+02  0.71731867633E+02  0.11159693231E+03  0.82381852961E+02 0.  0.
        -11    1    5    5    0    0 -0.37829350799E+02 -0.25353690398E+02  0.21526863738E+02  0.50371373429E+02  0.00000000000E+00 0.  1.
         12    1    5    5    0    0  0.34939216065E+02  0.26977443751E+01  0.50205003895E+02  0.61225558879E+02  0.00000000000E+00 0. -1.
        -13    1    3    3    0    0 -0.22271123896E+02  0.34060223091E+03 -0.12168687478E+03  0.36237215422E+03  0.00000000000E+00 0.  1.
         14    1    3    3    0    0  0.42679683541E+02  0.34697157313E+03 -0.16671110974E+03  0.38730275245E+03  0.00000000000E+00 0. -1.
          5    1    4    4  501    0  0.22870682858E+02 -0.29227106567E+03  0.19571460739E+03  0.35252197309E+03  0.47000000000E+01 0. -1.
         -5    1    4    4    0  501 -0.76470043816E+02 -0.24179594688E+03  0.25178217830E+03  0.35739236538E+03  0.47000000000E+01 0. -1.
          1    1    1    2  502    0 -0.32616759491E+02 -0.15021777613E+03 -0.13035570515E+04  0.13125891283E+04  0.00000000000E+00 0. -1.
          1    1    1    2  503    0  0.68697695539E+02  0.19366930664E+02  0.27360487831E+04  0.27369796117E+04  0.00000000000E+00 0. -1.
<mgrwt>
<rscale>  0 0.10472566E+03</rscale>
<asrwt>0</asrwt>
<pdfrwt beam="1">  1        2 0.53559392E+00 0.71375426E+02</pdfrwt>
<pdfrwt beam="2">  1        2 0.29098769E+00 0.15365881E+03</pdfrwt>
<totfact> 0.18658195E+00</totfact>
</mgrwt>
</event>
<event>
13    1  0.1595792E-008  0.5251097E+02  0.7546771E-02  0.1496316E+00
          2   -1    0    0  503    0  0.00000000000E+00  0.00000000000E+00  0.17807198929E+04  0.17807198929E+04  0.00000000000E+00 0. -1.
          2   -1    0    0  502    0 -0.00000000000E+00 -0.00000000000E+00 -0.89265243706E+03  0.89265243706E+03  0.00000000000E+00 0. -1.
         24    2    1    2    0    0 -0.63159425497E+02  0.98200567076E+02 -0.60235353042E+03  0.61887532376E+03  0.80897628847E+02 0.  0.
         25    2    1    2    0    0  0.16725049376E+03 -0.12655264181E+03  0.25651285156E+03  0.35413442374E+03  0.12499619292E+03 0.  0.
         24    2    1    2    0    0 -0.48842803057E+02 -0.30501262829E+02  0.24609294016E+03  0.26443922703E+03  0.77784466006E+02 0.  0.
        -11    1    5    5    0    0 -0.25279774602E+02  0.50878537594E+01  0.15839014093E+02  0.30262644088E+02  0.00000000000E+00 0.  1.
         12    1    5    5    0    0 -0.23563028456E+02 -0.35589116589E+02  0.23025392607E+03  0.23417658294E+03  0.00000000000E+00 0. -1.
        -13    1    3    3    0    0  0.58220686937E+01 -0.10871042547E+02 -0.37873316355E+02  0.39830442399E+02  0.00000000000E+00 0.  1.
         14    1    3    3    0    0 -0.68981494191E+02  0.10907160962E+03 -0.56448021406E+03  0.57904488136E+03  0.00000000000E+00 0. -1.
          5    1    4    4  501    0  0.11958931436E+03 -0.57686693688E+02  0.23095950690E+03  0.26644650977E+03  0.47000000000E+01 0.  1.
         -5    1    4    4    0  501  0.47661179407E+02 -0.68865948123E+02  0.25553344657E+02  0.87687913971E+02  0.47000000000E+01 0.  1.
          1    1    1    2  502    0 -0.10556318819E+02  0.31325843047E+02 -0.22226275192E+03  0.22470753258E+03  0.00000000000E+00 0. -1.
          1    1    1    2  503    0 -0.44691946390E+02  0.27527494517E+02  0.12100779464E+04  0.12112158228E+04  0.00000000000E+00 0. -1.
<mgrwt>
<rscale>  0 0.41663397E+02</rscale>
<asrwt>0</asrwt>
<pdfrwt beam="1">  1        2 0.26187057E+00 0.52510974E+02</pdfrwt>
<pdfrwt beam="2">  1        2 0.13127242E+00 0.33056683E+02</pdfrwt>
<totfact> 0.68936408E+01</totfact>
</mgrwt>
</event>
<event>
13    1  0.1595792E-008  0.7470429E+02  0.7546771E-02  0.1354584E+00
          2   -1    0    0  502    0  0.00000000000E+00  0.00000000000E+00  0.27580325553E+04  0.27580325553E+04  0.00000000000E+00 0. -1.
          2   -1    0    0  503    0 -0.00000000000E+00 -0.00000000000E+00 -0.10981214477E+04  0.10981214477E+04  0.00000000000E+00 0. -1.
         24    2    1    2    0    0  0.48977679479E+02 -0.43349545720E+02 -0.10234110336E+03  0.13699960340E+03  0.63381335533E+02 0.  0.
         25    2    1    2    0    0  0.44380913036E+02 -0.46484439125E+02  0.67520812141E+02  0.15592934459E+03  0.12499772762E+03 0.  0.
         24    2    1    2    0    0 -0.68456482145E+02 -0.15364131646E+02  0.12786264673E+04  0.12830433817E+04  0.79952046757E+02 0.  0.
        -11    1    3    3    0    0  0.36244726673E+02 -0.59982936359E+02 -0.80622481039E+02  0.10682517173E+03  0.00000000000E+00 0.  1.
         12    1    3    3    0    0  0.12732952806E+02  0.16633390639E+02 -0.21718622317E+02  0.30174431671E+02  0.00000000000E+00 0. -1.
        -11    1    5    5    0    0 -0.34888176880E+02  0.32552994777E+02  0.60825855416E+03  0.61012732365E+03  0.00000000000E+00 0.  1.
         12    1    5    5    0    0 -0.33568305264E+02 -0.47917126423E+02  0.67036791317E+03  0.67291605801E+03  0.00000000000E+00 0. -1.
          5    1    4    4  501    0  0.25683021376E+02  0.30653764518E+02 -0.13443962538E+02  0.42451160112E+02  0.47000000000E+01 0.  1.
         -5    1    4    4    0  501  0.18697891660E+02 -0.77138203643E+02  0.80964774678E+02  0.11347818448E+03  0.47000000000E+01 0.  1.
          1    1    1    2  502    0 -0.59098733586E+02  0.45598978604E+02  0.13458412279E+04  0.13479096920E+04  0.00000000000E+00 0. -1.
          1    1    1    2  503    0  0.34196623215E+02  0.59599137887E+02 -0.92973629645E+03  0.93227198136E+03  0.00000000000E+00 0. -1.
<mgrwt>
<rscale>  0 0.71646008E+02</rscale>
<asrwt>0</asrwt>
<pdfrwt beam="1">  1        2 0.40559302E+00 0.74704291E+02</pdfrwt>
<pdfrwt beam="2">  1        2 0.16148845E+00 0.68712927E+02</pdfrwt>
<totfact> 0.16604755E+01</totfact>
</mgrwt>
</event>
<event>
13    1  0.1595792E-008  0.2682466E+02  0.7546771E-02  0.1677273E+00
          2   -1    0    0  503    0  0.00000000000E+00  0.00000000000E+00  0.19419376628E+04  0.19419376628E+04  0.00000000000E+00 0. -1.
          2   -1    0    0  502    0 -0.00000000000E+00 -0.00000000000E+00 -0.44872449330E+03  0.44872449330E+03  0.00000000000E+00 0. -1.
         24    2    1    2    0    0 -0.25490828487E+02 -0.52527413745E+02  0.40871891507E+02  0.10808718880E+03  0.81261413578E+02 0.  0.
         25    2    1    2    0    0  0.88719146019E+02  0.36256639242E+02  0.31656566483E+03  0.35358677407E+03  0.12499662352E+03 0.  0.
         24    2    1    2    0    0 -0.35726531085E+02  0.41011280482E+01  0.41527512487E+03  0.42444657469E+03  0.80051615576E+02 0.  0.
        -11    1    5    5    0    0 -0.24121612147E+02  0.41304350512E+02  0.19731390273E+03  0.20302876090E+03  0.00000000000E+00 0.  1.
         12    1    5    5    0    0 -0.11604918938E+02 -0.37203222464E+02  0.21796122215E+03  0.22141781379E+03  0.00000000000E+00 0. -1.
        -13    1    3    3    0    0  0.68434007493E+01 -0.64259450416E+02  0.33960304520E+02  0.73002817649E+02  0.00000000000E+00 0.  1.
         14    1    3    3    0    0 -0.32334229236E+02  0.11732036671E+02  0.69115869875E+01  0.35084371156E+02  0.00000000000E+00 0. -1.
          5    1    4    4  501    0  0.72843234405E+01  0.48790331431E+02  0.36312154356E+02  0.61434683714E+02  0.47000000000E+01 0.  1.
         -5    1    4    4    0  501  0.81434822578E+02 -0.12533692189E+02  0.28025351047E+03  0.29215209035E+03  0.47000000000E+01 0.  1.
          1    1    1    2  502    0 -0.17172320983E+02 -0.12601873291E+02 -0.39156920384E+03  0.39214810623E+03  0.00000000000E+00 0. -1.
          1    1    1    2  503    0 -0.10329465465E+02  0.24771519747E+02  0.11120696921E+04  0.11123935123E+04  0.00000000000E+00 0. -1.
<mgrwt>
<rscale>  0 0.23903323E+02</rscale>
<asrwt>0</asrwt>
<pdfrwt beam="1">  1        2 0.28557906E+00 0.26824656E+02</pdfrwt>
<pdfrwt beam="2">  1        2 0.65988897E-01 0.21300137E+02</pdfrwt>
<totfact> 0.13135889E+02</totfact>
</mgrwt>
</event>
<event>
13    1  0.1595792E-008  0.1508071E+03  0.7546771E-02  0.1312601E+00
         -3   -1    0    0    0  501 -0.00000000000E+00  0.00000000000E+00  0.10576164151E+04  0.10576164151E+04  0.00000000000E+00 0.  1.
          2   -1    0    0  503    0  0.00000000000E+00 -0.00000000000E+00 -0.10113409526E+04  0.10113409526E+04  0.00000000000E+00 0. -1.
         24    2    1    2    0    0 -0.30166058118E+03 -0.12145503475E+03  0.41940936621E+03  0.53637090191E+03  0.77711622358E+02 0.  0.
         25    2    1    2    0    0  0.13654194284E+03  0.69526560185E+02 -0.57437547739E+02  0.20589735805E+03  0.12496801765E+03 0.  0.
         24    2    1    2    0    0  0.39820435314E+02 -0.48403910357E+02 -0.62711073119E+02  0.11584908263E+03  0.74563567827E+02 0.  0.
        -13    1    3    3    0    0 -0.22144246530E+03 -0.88370824268E+02  0.35775742865E+03  0.42992620969E+03  0.00000000000E+00 0.  1.
         14    1    3    3    0    0 -0.80218115877E+02 -0.33084210481E+02  0.61651937558E+02  0.10644469222E+03  0.00000000000E+00 0. -1.
        -13    1    5    5    0    0  0.43474955743E+02 -0.23601550281E+02 -0.73466833416E+02  0.88569072281E+02  0.00000000000E+00 0.  1.
         14    1    5    5    0    0 -0.36545204287E+01 -0.24802360076E+02  0.10755760297E+02  0.27280010345E+02  0.00000000000E+00 0. -1.
          5    1    4    4  502    0  0.42471881819E+02  0.38249913119E+02 -0.85326470697E+02  0.10280862415E+03  0.47000000000E+01 0.  1.
         -5    1    4    4    0  502  0.94070061023E+02  0.31276647065E+02  0.27888922958E+02  0.10308873390E+03  0.47000000000E+01 0.  1.
          1    1    1    2  503    0  0.41594705939E+02 -0.26179699005E+02 -0.71904068137E+03  0.72071838999E+03  0.00000000000E+00 0. -1.
         -4    1    1    2    0  501  0.83703497086E+02  0.12651208393E+03  0.46605539847E+03  0.49012163515E+03  0.00000000000E+00 0.  1.
<mgrwt>
<rscale>  0 0.86091938E+02</rscale>
<asrwt>0</asrwt>
<pdfrwt beam="2">  1        2 0.14872661E+00 0.49147698E+02</pdfrwt>
<pdfrwt beam="1">  1       -3 0.15553183E+00 0.15080710E+03</pdfrwt>
<totfact> 0.58108495E+00</totfact>
</mgrwt>
</event>
<event>
13    1  0.1595792E-008  0.4848089E+02  0.7546771E-02  0.1585986E+00
          2   -1    0    0  502    0  0.00000000000E+00  0.00000000000E+00  0.85782582430E+03  0.85782582430E+03  0.00000000000E+00 0. -1.
          2   -1    0    0  503    0 -0.00000000000E+00 -0.00000000000E+00 -0.12789070138E+04  0.12789070138E+04  0.00000000000E+00 0. -1.
         24    2    1    2    0    0 -0.14003575488E+01 -0.25988606216E+02 -0.78652383964E+03  0.79113274335E+03  0.81202824000E+02 0.  0.
         25    2    1    2    0    0 -0.36882642597E+02 -0.21262228652E+03 -0.24152523181E+03  0.34716796019E+03  0.12499035536E+03 0.  0.
         24    2    1    2    0    0  0.30121428656E+02  0.19496534742E+03  0.44450840592E+03  0.49277164545E+03  0.79481975752E+02 0.  0.
        -11    1    3    3    0    0  0.36174770599E+02 -0.21259616735E+02 -0.27203598156E+03  0.27525290297E+03  0.00000000000E+00 0.  1.
         12    1    3    3    0    0 -0.37575128148E+02 -0.47289894817E+01 -0.51448785808E+03  0.51587984038E+03  0.00000000000E+00 0. -1.
        -13    1    5    5    0    0  0.14487822726E+02  0.18139084473E+02  0.12613390354E+03  0.12825242694E+03  0.00000000000E+00 0.  1.
         14    1    5    5    0    0  0.15633605929E+02  0.17682626294E+03  0.31837450238E+03  0.36451921851E+03  0.00000000000E+00 0. -1.
          5    1    4    4  501    0 -0.84969572901E+00 -0.11513730108E+03 -0.20812964734E+03  0.23790199702E+03  0.47000000000E+01 0. -1.
         -5    1    4    4    0  501 -0.36032946868E+02 -0.97484985433E+02 -0.33395584467E+02  0.10926596317E+03  0.47000000000E+01 0. -1.
          1    1    1    2  502    0  0.27761493068E+02  0.39760961952E+02  0.33170930206E+03  0.33523528404E+03  0.00000000000E+00 0. -1.
          1    1    1    2  503    0 -0.19599921577E+02  0.38845833661E+01 -0.16924982598E+03  0.17042520503E+03  0.00000000000E+00 0. -1.
<mgrwt>
<rscale>  0 0.31124020E+02</rscale>
<asrwt>0</asrwt>
<pdfrwt beam="1">  1        2 0.12615086E+00 0.48480891E+02</pdfrwt>
<pdfrwt beam="2">  1        2 0.18807456E+00 0.19981164E+02</pdfrwt>
<totfact> 0.13265393E+02</totfact>
</mgrwt>
</event>
<event>
13    1  0.1595792E-008  0.2186704E+03  0.7546771E-02  0.1303017E+00
          2   -1    0    0  503    0  0.00000000000E+00  0.00000000000E+00  0.32939868753E+04  0.32939868753E+04  0.00000000000E+00 0. -1.
         -3   -1    0    0    0  501 -0.00000000000E+00 -0.00000000000E+00 -0.24295206862E+03  0.24295206862E+03  0.00000000000E+00 0.  1.
         24    2    1    2    0    0 -0.39436835730E+01 -0.38869424425E+02  0.47893633550E+03  0.48767194613E+03  0.83171682569E+02 0.  0.
         25    2    1    2    0    0  0.67141090739E+02 -0.12738096881E+03  0.43236437454E+03  0.47254414091E+03  0.12500070181E+03 0.  0.
         24    2    1    2    0    0 -0.66817006972E+02 -0.80699281685E+02  0.10046011818E+04  0.10125791524E+04  0.71527050187E+02 0.  0.
        -11    1    3    3    0    0  0.26374309580E+02 -0.91176418875E+01  0.36516134930E+03  0.36622608676E+03  0.00000000000E+00 0.  1.
         12    1    3    3    0    0 -0.30317993153E+02 -0.29751782538E+02  0.11377498620E+03  0.12144585937E+03  0.00000000000E+00 0. -1.
        -13    1    5    5    0    0 -0.95917889869E+01 -0.61648485521E+02  0.38175801804E+03  0.38682259825E+03  0.00000000000E+00 0.  1.
         14    1    5    5    0    0 -0.57225217985E+02 -0.19050796164E+02  0.62284316380E+03  0.62575655418E+03  0.00000000000E+00 0. -1.
          5    1    4    4  502    0  0.13874394438E+02  0.14088353792E+02  0.76678026003E+01  0.21722470631E+02  0.47000000000E+01 0.  1.
         -5    1    4    4    0  502  0.53266696302E+02 -0.14146932261E+03  0.42469657194E+03  0.45082167028E+03  0.47000000000E+01 0.  1.
          1    1    1    2  503    0 -0.32851837189E+02  0.16991612970E+02  0.12861128021E+04  0.12866445110E+04  0.00000000000E+00 0. -1.
         -4    1    1    2    0  501  0.36471436995E+02  0.22995806196E+03 -0.15097988729E+03  0.27749919341E+03  0.00000000000E+00 0.  1.
<mgrwt>
<rscale>  0 0.89931782E+02</rscale>
<asrwt>0</asrwt>
<pdfrwt beam="1">  1        2 0.48440981E+00 0.36985918E+02</pdfrwt>
<pdfrwt beam="2">  1       -3 0.35728247E-01 0.21867040E+03</pdfrwt>
<totfact> 0.11439029E+01</totfact>
</mgrwt>
</event>
<event>
13    1  0.1595792E-008  0.9017795E+02  0.7546771E-02  0.1369467E+00
          2   -1    0    0  503    0  0.00000000000E+00  0.00000000000E+00  0.23333678232E+04  0.23333678232E+04  0.00000000000E+00 0. -1.
          2   -1    0    0  502    0 -0.00000000000E+00 -0.00000000000E+00 -0.11118888858E+04  0.11118888858E+04  0.00000000000E+00 0. -1.
         24    2    1    2    0    0 -0.63163663577E+01 -0.43798353654E+02 -0.29369717551E+03  0.30798463537E+03  0.81475839681E+02 0.  0.
         25    2    1    2    0    0  0.46973723773E+02  0.12345094237E+03 -0.23617248661E+03  0.29807993015E+03  0.12501014130E+03 0.  0.
         24    2    1    2    0    0 -0.14096768072E+02  0.56799549032E+02  0.18824173110E+03  0.21294668071E+03  0.80538387484E+02 0.  0.
        -11    1    3    3    0    0  0.15200989102E+02 -0.44049513159E+02 -0.27660777394E+03  0.28050541934E+03  0.00000000000E+00 0.  1.
         12    1    3    3    0    0 -0.21517355460E+02  0.25115950430E+00 -0.17089401577E+02  0.27479216025E+02  0.00000000000E+00 0. -1.
        -13    1    5    5    0    0  0.22902002743E+02  0.23066405660E+02  0.13889513538E+03  0.14264788618E+03  0.00000000000E+00 0.  1.
         14    1    5    5    0    0 -0.36998770815E+02  0.33733143373E+02  0.49346595724E+02  0.70298794536E+02  0.00000000000E+00 0. -1.
          5    1    4    4  501    0  0.51646527813E+02  0.28392572795E+02 -0.20983149580E+02  0.62736628785E+02  0.47000000000E+01 0. -1.
         -5    1    4    4    0  501 -0.46728040400E+01  0.95058369578E+02 -0.21518933703E+03  0.23534330136E+03  0.47000000000E+01 0. -1.
          1    1    1    2  502    0 -0.36115802322E+00 -0.50247925906E+02 -0.52941022855E+03  0.53178959616E+03  0.00000000000E+00 0. -1.
          1    1    1    2  503    0 -0.26199431320E+02 -0.86204211845E+02  0.20925170970E+04  0.20944558667E+04  0.00000000000E+00 0. -1.
<mgrwt>
<rscale>  0 0.67315465E+02</rscale>
<asrwt>0</asrwt>
<pdfrwt beam="1">  1        2 0.34314233E+00 0.90177946E+02</pdfrwt>
<pdfrwt beam="2">  1        2 0.16351307E+00 0.50249224E+02</pdfrwt>
<totfact> 0.26311646E+01</totfact>
</mgrwt>
</event>
<event>
13    1  0.1595792E-008  0.1168900E+03  0.7546771E-02  0.1353532E+00
          2   -1    0    0  503    0  0.00000000000E+00  0.00000000000E+00  0.28012746670E+03  0.28012746670E+03  0.00000000000E+00 0. -1.
          2   -1    0    0  502    0 -0.00000000000E+00 -0.00000000000E+00 -0.53504935611E+03  0.53504935611E+03  0.00000000000E+00 0. -1.
         24    2    1    2    0    0  0.48818630724E+02 -0.49443507823E+02 -0.47691620341E+02  0.11647323920E+03  0.80396552332E+02 0.  0.
         25    2    1    2    0    0 -0.66519131307E+02 -0.56883796900E+02 -0.74240842726E+02  0.16969235013E+03  0.12499291894E+03 0.  0.
         24    2    1    2    0    0 -0.88619162472E+02  0.72131335413E+02 -0.30664398159E+02  0.14181991089E+03  0.78206753566E+02 0.  0.
        -11    1    3    3    0    0  0.71177962514E+02 -0.37514769309E+02 -0.31532053976E+02  0.86417189794E+02  0.00000000000E+00 0.  1.
         12    1    3    3    0    0 -0.22359331790E+02 -0.11928738514E+02 -0.16159566366E+02  0.30056049404E+02  0.00000000000E+00 0. -1.
        -13    1    5    5    0    0 -0.10283486366E+03  0.56725794718E+02 -0.27507528716E+02  0.12062126308E+03  0.00000000000E+00 0.  1.
         14    1    5    5    0    0  0.14215701185E+02  0.15405540695E+02 -0.31568694432E+01  0.21198647810E+02  0.00000000000E+00 0. -1.
          5    1    4    4  501    0 -0.15379027219E+01  0.37011412361E+02 -0.10291915466E+02  0.38732716322E+02  0.47000000000E+01 0. -1.
         -5    1    4    4    0  501 -0.64981228585E+02 -0.93895209261E+02 -0.63948927260E+02  0.13095963381E+03  0.47000000000E+01 0. -1.
          1    1    1    2  502    0 -0.59139437318E+01  0.43911082186E+02 -0.21992279922E+03  0.22434169360E+03  0.00000000000E+00 0. -1.
          1    1    1    2  503    0  0.11223360679E+03 -0.97151128755E+01  0.11759777103E+03  0.16284962899E+03  0.00000000000E+00 0. -1.
<mgrwt>
<rscale>  0 0.71966008E+02</rscale>
<asrwt>0</asrwt>
<pdfrwt beam="1">  1        2 0.41195216E-01 0.11688996E+03</pdfrwt>
<pdfrwt beam="2">  1        2 0.78683728E-01 0.44307537E+02</pdfrwt>
<totfact> 0.11849740E+03</totfact>
</mgrwt>
</event>
<event>
13    1  0.1595792E-008  0.8705094E+02  0.7546771E-02  0.1455499E+00
          2   -1    0    0  502    0  0.00000000000E+00  0.00000000000E+00  0.15650509949E+04  0.15650509949E+04  0.00000000000E+00 0. -1.
          2   -1    0    0  503    0 -0.00000000000E+00 -0.00000000000E+00 -0.88259930778E+03  0.88259930778E+03  0.00000000000E+00 0. -1.
         24    2    1    2    0    0 -0.71170580740E+02  0.24896744966E+02 -0.20284121181E+03  0.23064804555E+03  0.79805164216E+02 0.  0.
         25    2    1    2    0    0  0.33116949918E+03  0.42125428053E+02  0.13019008586E+03  0.37950231067E+03  0.12499902588E+03 0.  0.
         24    2    1    2    0    0 -0.16197239394E+03 -0.10243367068E+02  0.60309726326E+03  0.62981185141E+03  0.81219925183E+02 0.  0.
        -11    1    5    5    0    0 -0.43096695448E+02 -0.39426529038E+02  0.22088271861E+03  0.22847527597E+03  0.00000000000E+00 0.  1.
         12    1    5    5    0    0 -0.11887569849E+03  0.29183161970E+02  0.38221454466E+03  0.40133657544E+03  0.00000000000E+00 0. -1.
        -13    1    3    3    0    0 -0.39749421930E+02 -0.19163231751E+02 -0.14443179448E+03  0.15102247929E+03  0.00000000000E+00 0.  1.
         14    1    3    3    0    0 -0.31421158810E+02  0.44059976717E+02 -0.58409417329E+02  0.79625566258E+02  0.00000000000E+00 0. -1.
          5    1    4    4  501    0  0.24047176819E+03  0.32389808808E+02  0.15098915171E+03  0.28582439530E+03  0.47000000000E+01 0. -1.
         -5    1    4    4    0  501  0.90697730985E+02  0.97356192457E+01 -0.20799065852E+02  0.93677915371E+02  0.47000000000E+01 0. -1.
          1    1    1    2  502    0 -0.21070070488E+02 -0.16316896439E+02  0.67600213259E+03  0.67652721472E+03  0.00000000000E+00 0. -1.
          1    1    1    2  503    0 -0.76956454007E+02 -0.40461909514E+02 -0.52399658284E+03  0.53116088030E+03  0.00000000000E+00 0. -1.
<mgrwt>
<rscale>  0 0.48164849E+02</rscale>
<asrwt>0</asrwt>
<pdfrwt beam="1">  1        2 0.23015456E+00 0.26649371E+02</pdfrwt>
<pdfrwt beam="2">  1        2 0.12979402E+00 0.87050937E+02</pdfrwt>
<totfact> 0.90113761E+01</totfact>
</mgrwt>
</event>
<event>
13    1  0.1595792E-008  0.1153507E+03  0.7546771E-02  0.1327016E+00
          2   -1    0    0  502    0  0.00000000000E+00  0.00000000000E+00  0.54641245325E+03  0.54641245325E+03  0.00000000000E+00 0. -1.
          2   -1    0    0  503    0 -0.00000000000E+00 -0.00000000000E+00 -0.72904322274E+03  0.72904322274E+03  0.00000000000E+00 0. -1.
         24    2    1    2    0    0  0.72915036452E+02 -0.90218114148E+02 -0.32694610694E+03  0.35652275547E+03  0.82211967876E+02 0.  0.
         25    2    1    2    0    0 -0.71718961529E+02  0.48778938443E+02 -0.65829130883E+02  0.16577896290E+03  0.12500478307E+03 0.  0.
         24    2    1    2    0    0 -0.66242760506E+02  0.13179622654E+03  0.51399718432E+02  0.17574827165E+03  0.80543002693E+02 0.  0.
        -11    1    5    5    0    0 -0.65360339784E+02  0.12865668099E+03  0.21770305657E+02  0.14593992527E+03  0.00000000000E+00 0.  1.
         12    1    5    5    0    0 -0.88242072213E+00  0.31395455571E+01  0.29629412775E+02  0.29808346382E+02  0.00000000000E+00 0. -1.
        -11    1    3    3    0    0 -0.81385360448E+01  0.71483203085E+01 -0.83962875752E+01  0.13705177753E+02  0.00000000000E+00 0.  1.
         12    1    3    3    0    0  0.81053572496E+02 -0.97366434457E+02 -0.31854981937E+03  0.34281757772E+03  0.00000000000E+00 0. -1.
          5    1    4    4  501    0  0.29491573524E+02  0.25787599033E+02  0.53809356010E+01  0.39822074792E+02  0.47000000000E+01 0.  1.
         -5    1    4    4    0  501 -0.10121053505E+03  0.22991339411E+02 -0.71210066484E+02  0.12595688811E+03  0.47000000000E+01 0.  1.
          1    1    1    2  502    0  0.14118349623E+02 -0.11479526414E+03  0.35490402095E+03  0.37327489140E+03  0.00000000000E+00 0. -1.
          1    1    1    2  503    0  0.50928335960E+02  0.24438213304E+02 -0.19615927105E+03  0.20413079457E+03  0.00000000000E+00 0. -1.
<mgrwt>
<rscale>  0 0.80721473E+02</rscale>
<asrwt>0</asrwt>
<pdfrwt beam="1">  1        2 0.80354773E-01 0.11535066E+03</pdfrwt>
<pdfrwt beam="2">  1        2 0.10721224E+00 0.56488244E+02</pdfrwt>
<totfact> 0.41312262E+02</totfact>
</mgrwt>
</event>
<event>
13    1  0.1595792E-008  0.1233615E+03  0.7546771E-02  0.1352466E+00
          2   -1    0    0  503    0  0.00000000000E+00  0.00000000000E+00  0.31914456673E+04  0.31914456673E+04  0.00000000000E+00 0. -1.
          2   -1    0    0  502    0 -0.00000000000E+00 -0.00000000000E+00 -0.94751337489E+03  0.94751337489E+03  0.00000000000E+00 0. -1.
         24    2    1    2    0    0  0.67621502065E+02 -0.93718121285E+01 -0.75551814956E+02  0.12898578173E+03  0.79175480678E+02 0.  0.
         25    2    1    2    0    0 -0.11359715576E+03  0.13660353224E+03  0.70787398356E+02  0.22847664691E+03  0.12500353434E+03 0.  0.
         24    2    1    2    0    0  0.43996965550E+02  0.20067819436E+01  0.20546653806E+03  0.22420515827E+03  0.78177327800E+02 0.  0.
        -11    1    5    5    0    0  0.64061576217E+02  0.60850519864E+01  0.18210905364E+03  0.19314404164E+03  0.00000000000E+00 0.  1.
         12    1    5    5    0    0 -0.20064610667E+02 -0.40782700428E+01  0.23357484423E+02  0.31061116630E+02  0.00000000000E+00 0. -1.
        -13    1    3    3    0    0  0.68983962932E+02  0.15967508777E+02 -0.75638769242E+02  0.10360970944E+03  0.00000000000E+00 0.  1.
         14    1    3    3    0    0 -0.13624608674E+01 -0.25339320905E+02  0.86954286063E-01  0.25376072285E+02  0.00000000000E+00 0. -1.
          5    1    4    4  501    0 -0.13510772402E+03  0.86498362593E+02  0.38919262687E+02  0.16514497519E+03  0.47000000000E+01 0. -1.
         -5    1    4    4    0  501  0.21510568257E+02  0.50105169646E+02  0.31868135669E+02  0.63331671722E+02  0.47000000000E+01 0. -1.
          1    1    1    2  502    0 -0.38872547123E+02 -0.11801447092E+03 -0.75177066289E+03  0.76196956622E+03  0.00000000000E+00 0. -1.
          1    1    1    2  503    0  0.40851235272E+02 -0.11224031129E+02  0.27950008338E+04  0.27953218891E+04  0.00000000000E+00 0. -1.
<mgrwt>
<rscale>  0 0.72292614E+02</rscale>
<asrwt>0</asrwt>
<pdfrwt beam="1">  1        2 0.46933024E+00 0.42365107E+02</pdfrwt>
<pdfrwt beam="2">  1        2 0.13934020E+00 0.12336147E+03</pdfrwt>
<totfact> 0.12863065E+01</totfact>
</mgrwt>
</event>
<event>
13    1  0.1595792E-008  0.3908717E+02  0.7546771E-02  0.1532554E+00
          2   -1    0    0  502    0  0.00000000000E+00  0.00000000000E+00  0.54155336234E+03  0.54155336234E+03  0.00000000000E+00 0. -1.
          2   -1    0    0  503    0 -0.00000000000E+00 -0.00000000000E+00 -0.11085063483E+04  0.11085063483E+04  0.00000000000E+00 0. -1.
         24    2    1    2    0    0  0.19751929285E+02  0.23965898928E+02 -0.35289428610E+01  0.86227409026E+02  0.80362986553E+02 0.  0.
         25    2    1    2    0    0  0.84669766658E+02  0.42322461828E+02  0.58929676329E+02  0.16750485313E+03  0.12500003564E+03 0.  0.
         24    2    1    2    0    0 -0.65896553453E+02 -0.34941145020E+02  0.86724239334E+02  0.13965807129E+03  0.80125175918E+02 0.  0.
        -11    1    5    5    0    0 -0.53823919522E+01  0.21998088741E+02  0.51659417926E+01  0.23228710812E+02  0.00000000000E+00 0.  1.
         12    1    5    5    0    0 -0.60514161500E+02 -0.56939233761E+02  0.81558297541E+02  0.11642936048E+03  0.00000000000E+00 0. -1.
        -11    1    3    3    0    0  0.33943914860E+02  0.45082374966E+02  0.10154613720E+02  0.57338696082E+02  0.00000000000E+00 0.  1.
         12    1    3    3    0    0 -0.14191985575E+02 -0.21116476038E+02 -0.13683556581E+02  0.28888712944E+02  0.00000000000E+00 0. -1.
          5    1    4    4  501    0 -0.22937783010E+01  0.39079379251E+02  0.69308263641E+02  0.79738226155E+02  0.47000000000E+01 0. -1.
         -5    1    4    4    0  501  0.86963544959E+02  0.32430825772E+01 -0.10378587312E+02  0.87766626977E+02  0.47000000000E+01 0. -1.
          1    1    1    2  502    0 -0.38972546054E+02  0.34378860269E+01  0.27208822581E+03  0.27488666944E+03  0.00000000000E+00 0. -1.
          1    1    1    2  503    0  0.44740356434E+00 -0.34785101763E+02 -0.98116618459E+03  0.98178270776E+03  0.00000000000E+00 0. -1.
<mgrwt>
<rscale>  0 0.36874972E+02</rscale>
<asrwt>0</asrwt>
<pdfrwt beam="1">  1        2 0.79640200E-01 0.39087168E+02</pdfrwt>
<pdfrwt beam="2">  1        2 0.16301564E+00 0.34787979E+02</pdfrwt>
<totfact> 0.25975984E+02</totfact>
</mgrwt>
</event>
<event>
13    1  0.1595792E-008  0.2120898E+03  0.7546771E-02  0.1366028E+00
          2   -1    0    0  503    0  0.00000000000E+00  0.00000000000E+00  0.24069494434E+04  0.24069494434E+04  0.00000000000E+00 0. -1.
         -1   -1    0    0    0  501 -0.00000000000E+00 -0.00000000000E+00 -0.85038330967E+03  0.85038330967E+03  0.00000000000E+00 0.  1.
         24    2    1    2    0    0 -0.51082969737E+02 -0.45571380928E+02 -0.27361010127E+03  0.29344583105E+03  0.81004615239E+02 0.  0.
         25    2    1    2    0    0 -0.43622066285E-01 -0.35942310948E+02 -0.15501186061E+03  0.20235176358E+03  0.12500283067E+03 0.  0.
         24    2    1    2    0    0 -0.15601501346E+03  0.86317544418E+02  0.19800045004E+03  0.27852036679E+03  0.81104954233E+02 0.  0.
        -11    1    5    5    0    0 -0.83552887212E+02  0.72078930403E+02  0.16289839908E+03  0.19675453132E+03  0.00000000000E+00 0.  1.
         12    1    5    5    0    0 -0.72462126244E+02  0.14238614016E+02  0.35102050955E+02  0.81765835470E+02  0.00000000000E+00 0. -1.
        -11    1    3    3    0    0  0.19155154709E+02 -0.27051683388E+02 -0.76266332118E+02  0.83158084037E+02  0.00000000000E+00 0.  1.
         12    1    3    3    0    0 -0.70238124447E+02 -0.18519697539E+02 -0.19734376915E+03  0.21028774702E+03  0.00000000000E+00 0. -1.
          5    1    4    4  502    0 -0.21413474379E+02  0.39740355754E+02 -0.29393925790E+02  0.54073335701E+02  0.47000000000E+01 0.  1.
         -5    1    4    4    0  502  0.21369852313E+02 -0.75682666703E+02 -0.12561793482E+03  0.14827842788E+03  0.47000000000E+01 0.  1.
          1    1    1    2  503    0  0.22001148297E+03  0.13019959711E+02  0.21290595853E+04  0.21404367053E+04  0.00000000000E+00 0. -1.
         -2    1    1    2    0  501 -0.12869877716E+02 -0.17823812253E+02 -0.34187193971E+03  0.34257808628E+03  0.00000000000E+00 0.  1.
<mgrwt>
<rscale>  0 0.68284008E+02</rscale>
<asrwt>0</asrwt>
<pdfrwt beam="1">  1        2 0.35396315E+00 0.21208976E+03</pdfrwt>
<pdfrwt beam="2">  1       -1 0.12505637E+00 0.21984586E+02</pdfrwt>
<totfact> 0.42178976E+00</totfact>
</mgrwt>
</event>
<event>
13    1  0.1595792E-008  0.7561740E+02  0.7546771E-02  0.1343980E+00
          2   -1    0    0  503    0  0.00000000000E+00  0.00000000000E+00  0.11867857491E+04  0.11867857491E+04  0.00000000000E+00 0. -1.
         -1   -1    0    0    0  501 -0.00000000000E+00 -0.00000000000E+00 -0.43510388384E+03  0.43510388384E+03  0.00000000000E+00 0.  1.
         24    2    1    2    0    0 -0.85278896476E+02  0.27623684216E+01  0.48310876667E+01  0.11963309758E+03  0.83717487813E+02 0.  0.
         25    2    1    2    0    0 -0.85238841964E+02  0.22146121253E+03  0.91088720091E+02  0.28325402069E+03  0.12499982590E+03 0.  0.
         24    2    1    2    0    0  0.94295517246E+02 -0.95979431468E+02  0.26457956370E+03  0.30785998497E+03  0.81680652435E+02 0.  0.
        -11    1    5    5    0    0  0.75625654572E+02 -0.78788449412E+02  0.26008851747E+03  0.28208668226E+03  0.00000000000E+00 0.  1.
         12    1    5    5    0    0  0.18669862673E+02 -0.17190982057E+02  0.44910462287E+01  0.25773302709E+02  0.00000000000E+00 0. -1.
        -13    1    3    3    0    0 -0.68792368704E+02 -0.34196202318E+02  0.14124666664E+02  0.78110667986E+02  0.00000000000E+00 0.  1.
         14    1    3    3    0    0 -0.16486527772E+02  0.36958570739E+02 -0.92935789969E+01  0.41522429597E+02  0.00000000000E+00 0. -1.
          5    1    4    4  502    0 -0.13905982129E+01  0.14058685867E+03  0.95814223565E+01  0.14099819945E+03  0.47000000000E+01 0. -1.
         -5    1    4    4    0  502 -0.83848243751E+02  0.80874353864E+02  0.81507297735E+02  0.14225582124E+03  0.47000000000E+01 0. -1.
          1    1    1    2  503    0  0.38393945794E+02 -0.63632433071E+02  0.64358898574E+03  0.64786569918E+03  0.00000000000E+00 0. -1.
         -2    1    1    2    0  501  0.37828275400E+02 -0.64611716415E+02 -0.25240649193E+03  0.26327683051E+03  0.00000000000E+00 0.  1.
<mgrwt>
<rscale>  0 0.74964940E+02</rscale>
<asrwt>0</asrwt>
<pdfrwt beam="1">  1        2 0.17452732E+00 0.74318111E+02</pdfrwt>
<pdfrwt beam="2">  1       -1 0.63985865E-01 0.75617398E+02</pdfrwt>
<totfact> 0.71351249E+01</totfact>
</mgrwt>
</event>
<event>
13    1  0.1595792E-008  0.2463364E+03  0.7546771E-02  0.1313053E+00
          2   -1    0    0  502    0  0.00000000000E+00  0.00000000000E+00  0.23453696889E+04  0.23453696889E+04  0.00000000000E+00 0. -1.
          2   -1    0    0  503    0 -0.00000000000E+00 -0.00000000000E+00 -0.14018763555E+04  0.14018763555E+04  0.00000000000E+00 0. -1.
         24    2    1    2    0    0 -0.56768147451E+02  0.18349601016E+03 -0.15631552711E+03  0.26047622830E+03  0.80745979340E+02 0.  0.
         25    2    1    2    0    0  0.23663460036E+03 -0.47059495109E+02  0.95180475937E+03  0.98983183152E+03  0.12499689821E+03 0.  0.
         24    2    1    2    0    0  0.44150483401E+02  0.42031689251E+02  0.22409043950E+03  0.24548912579E+03  0.79576741088E+02 0.  0.
        -11    1    3    3    0    0  0.16089643563E+02  0.58414771659E+02 -0.26849281448E+02  0.66272513851E+02  0.00000000000E+00 0.  1.
         12    1    3    3    0    0 -0.72857791014E+02  0.12508123851E+03 -0.12946624567E+03  0.19420371444E+03  0.00000000000E+00 0. -1.
        -13    1    5    5    0    0  0.63614800112E+02  0.47872332210E+02  0.17041037009E+03  0.18809119389E+03  0.00000000000E+00 0.  1.
         14    1    5    5    0    0 -0.19464316710E+02 -0.58406429583E+01  0.53680069405E+02  0.57397931901E+02  0.00000000000E+00 0. -1.
          5    1    4    4  501    0  0.21598369579E+03 -0.74290177010E+02  0.71723840988E+03  0.75274232899E+03  0.47000000000E+01 0.  1.
         -5    1    4    4    0  501  0.20650904574E+02  0.27230681901E+02  0.23456634948E+03  0.23708950252E+03  0.47000000000E+01 0.  1.
          1    1    1    2  502    0  0.14983437951E+02 -0.25950691910E+02  0.10702006404E+04  0.10706200785E+04  0.00000000000E+00 0. -1.
          1    1    1    2  503    0 -0.23900037427E+03 -0.15251751240E+03 -0.11462869788E+04  0.11808287803E+04  0.00000000000E+00 0. -1.
<mgrwt>
<rscale>  0 0.85916448E+02</rscale>
<asrwt>0</asrwt>
<pdfrwt beam="1">  1        2 0.34490731E+00 0.29965677E+02</pdfrwt>
<pdfrwt beam="2">  1        2 0.20615829E+00 0.24633637E+03</pdfrwt>
<totfact> 0.19155983E+01</totfact>
</mgrwt>
</event>
<event>
13    1  0.1595792E-008  0.8530591E+02  0.7546771E-02  0.1337236E+00
          2   -1    0    0  503    0  0.00000000000E+00  0.00000000000E+00  0.30053575534E+04  0.30053575534E+04  0.00000000000E+00 0. -1.
          2   -1    0    0  502    0 -0.00000000000E+00 -0.00000000000E+00 -0.20613036344E+04  0.20613036344E+04  0.00000000000E+00 0. -1.
         24    2    1    2    0    0  0.10124872034E+02 -0.58022308207E+02 -0.60706684050E+03  0.61542768933E+03  0.82170497617E+02 0.  0.
         25    2    1    2    0    0 -0.85397084797E+02  0.24716365678E+03  0.20143801277E+03  0.35296576132E+03  0.12500008139E+03 0.  0.
         24    2    1    2    0    0  0.11431228150E+03 -0.17642622833E+03  0.99150699453E+03  0.10167603996E+04  0.80759385265E+02 0.  0.
        -11    1    3    3    0    0 -0.11393065104E+02 -0.22434497603E+02 -0.49901507025E+03  0.49964902577E+03  0.00000000000E+00 0.  1.
         12    1    3    3    0    0  0.21517937138E+02 -0.35587810605E+02 -0.10805177025E+03  0.11577866356E+03  0.00000000000E+00 0. -1.
        -11    1    5    5    0    0  0.69468710954E+02 -0.15929827431E+03  0.84157483130E+03  0.85933115775E+03  0.00000000000E+00 0.  1.
         12    1    5    5    0    0  0.44843570549E+02 -0.17127954020E+02  0.14993216323E+03  0.15742924188E+03  0.00000000000E+00 0. -1.
          5    1    4    4  501    0 -0.45583152851E+02  0.23785082776E+03  0.19571532483E+03  0.31141197547E+03  0.47000000000E+01 0.  1.
         -5    1    4    4    0  501 -0.39813931945E+02  0.93128290253E+01  0.57226879373E+01  0.41553785852E+02  0.47000000000E+01 0.  1.
          1    1    1    2  502    0 -0.12964703646E+02  0.68622787847E+02 -0.13597085687E+04  0.13615008492E+04  0.00000000000E+00 0. -1.
          1    1    1    2  503    0 -0.26075365094E+02 -0.81337908093E+02  0.17178843209E+04  0.17200064884E+04  0.00000000000E+00 0. -1.
<mgrwt>
<rscale>  0 0.77184758E+02</rscale>
<asrwt>0</asrwt>
<pdfrwt beam="1">  1        2 0.44196434E+00 0.85305909E+02</pdfrwt>
<pdfrwt beam="2">  1        2 0.30313289E+00 0.69836742E+02</pdfrwt>
<totfact> 0.40861093E+00</totfact>
</mgrwt>
</event>
<event>
13    1  0.1595792E-008  0.3238503E+03  0.7546771E-02  0.1229675E+00
          2   -1    0    0  502    0  0.00000000000E+00  0.00000000000E+00  0.13166505291E+04  0.13166505291E+04  0.00000000000E+00 0. -1.
          2   -1    0    0  503    0 -0.00000000000E+00 -0.00000000000E+00 -0.27196335487E+04  0.27196335487E+04  0.00000000000E+00 0. -1.
         24    2    1    2    0    0 -0.36534056523E+02 -0.20213465815E+03 -0.38893831286E+03  0.44800303645E+03  0.85091434067E+02 0.  0.
         25    2    1    2    0    0 -0.82182867688E+01 -0.12310988133E+03  0.48949187157E+02  0.18232961615E+03  0.12499793152E+03 0.  0.
         24    2    1    2    0    0  0.92889375863E+01 -0.15902207390E+02  0.30448856160E+03  0.31571021277E+03  0.81366391942E+02 0.  0.
        -11    1    5    5    0    0  0.31425368843E+02 -0.39404363726E+02  0.16456353282E+03  0.17210872733E+03  0.00000000000E+00 0.  1.
         12    1    5    5    0    0 -0.22136431257E+02  0.23502156336E+02  0.13992502878E+03  0.14360148544E+03  0.00000000000E+00 0. -1.
        -11    1    3    3    0    0  0.18755524863E+02 -0.20361581319E+02 -0.24303970237E+02  0.36838114447E+02  0.00000000000E+00 0.  1.
         12    1    3    3    0    0 -0.55289581386E+02 -0.18177307683E+03 -0.36463434262E+03  0.41116492200E+03  0.00000000000E+00 0. -1.
          5    1    4    4  501    0 -0.83397274399E+01 -0.62943220883E+02 -0.39742225323E+02  0.75052878576E+02  0.47000000000E+01 0.  1.
         -5    1    4    4    0  501  0.12144067117E+00 -0.60166660452E+02  0.88691412480E+02  0.10727673758E+03  0.47000000000E+01 0.  1.
          1    1    1    2  502    0 -0.92246262176E+01 -0.50158329087E+02  0.84320427238E+03  0.84474516670E+03  0.00000000000E+00 0. -1.
          1    1    1    2  503    0  0.44688031923E+02  0.39130507596E+03 -0.22106867279E+04  0.22454960458E+04  0.00000000000E+00 0. -1.
<mgrwt>
<rscale>  0 0.12851542E+03</rscale>
<asrwt>0</asrwt>
<pdfrwt beam="1">  1        2 0.19362508E+00 0.50999527E+02</pdfrwt>
<pdfrwt beam="2">  1        2 0.39994610E+00 0.32385035E+03</pdfrwt>
<totfact> 0.11223702E+01</totfact>
</mgrwt>
</event>
<event>
13    1  0.1595792E-008  0.2084827E+03  0.7546771E-02  0.1171502E+00
          2   -1    0    0  502    0  0.00000000000E+00  0.00000000000E+00  0.35679630725E+04  0.35679630725E+04  0.00000000000E+00 0. -1.
          2   -1    0    0  503    0 -0.00000000000E+00 -0.00000000000E+00 -0.22325924643E+04  0.22325924643E+04  0.00000000000E+00 0. -1.
         24    2    1    2    0    0 -0.66602217080E+02  0.15350600188E+03  0.42489339595E+02  0.19053409718E+03  0.80609864633E+02 0.  0.
         25    2    1    2    0    0  0.31599240990E+03 -0.36689792045E+03 -0.47998797815E+02  0.50238606711E+03  0.12499035439E+03 0.  0.
         24    2    1    2    0    0 -0.65993261160E+02 -0.11555950731E+03  0.11256322254E+03  0.19247634351E+03  0.81655088601E+02 0.  0.
        -11    1    3    3    0    0  0.13875813014E+02  0.10885202257E+02  0.17559848962E+02  0.24887227859E+02  0.00000000000E+00 0.  1.
         12    1    3    3    0    0 -0.80478030094E+02  0.14262079963E+03  0.24929490634E+02  0.16564686933E+03  0.00000000000E+00 0. -1.
        -13    1    5    5    0    0 -0.51601871937E+02 -0.92708369588E+02  0.37221968628E+02  0.11244140664E+03  0.00000000000E+00 0.  1.
         14    1    5    5    0    0 -0.14391389223E+02 -0.22851137726E+02  0.75341253909E+02  0.80034936870E+02  0.00000000000E+00 0. -1.
          5    1    4    4  501    0  0.23836509693E+03 -0.33256011696E+03 -0.68631177564E+02  0.41490538604E+03  0.47000000000E+01 0. -1.
         -5    1    4    4    0  501  0.77627312971E+02 -0.34337803490E+02  0.20632379749E+02  0.87480681077E+02  0.47000000000E+01 0. -1.
          1    1    1    2  502    0 -0.62213038780E+00  0.23264584819E+03  0.30615223316E+04  0.30703490787E+04  0.00000000000E+00 0. -1.
          1    1    1    2  503    0 -0.18277480128E+03  0.96305577691E+02 -0.18332054878E+04  0.18448099503E+04  0.00000000000E+00 0. -1.
<mgrwt>
<rscale>  0 0.17623020E+03</rscale>
<asrwt>0</asrwt>
<pdfrwt beam="1">  1        2 0.52470045E+00 0.14896719E+03</pdfrwt>
<pdfrwt beam="2">  1        2 0.32832242E+00 0.20848272E+03</pdfrwt>
<totfact> 0.13100183E+00</totfact>
</mgrwt>
</event>
<event>
13    1  0.1595792E-008  0.6357416E+02  0.7546771E-02  0.1640977E+00
          2   -1    0    0  502    0  0.00000000000E+00  0.00000000000E+00  0.42993101451E+04  0.42993101451E+04  0.00000000000E+00 0. -1.
          2   -1    0    0  503    0 -0.00000000000E+00 -0.00000000000E+00 -0.20934118941E+04  0.20934118941E+04  0.00000000000E+00 0. -1.
         24    2    1    2    0    0  0.10567413102E+03 -0.94631158617E+03 -0.10236439917E+04  0.14006711704E+04  0.85790824371E+02 0.  0.
         25    2    1    2    0    0  0.10428669212E+03  0.85778208054E+03 -0.50040429786E+03  0.10063274881E+04  0.12499896061E+03 0.  0.
         24    2    1    2    0    0 -0.15101897412E+03  0.86338971614E+02  0.12974757082E+03  0.23167332267E+03  0.81098383098E+02 0.  0.
        -11    1    3    3    0    0  0.15668788681E+02 -0.34048700254E+03 -0.41752261231E+03  0.53898241310E+03  0.00000000000E+00 0.  1.
         12    1    3    3    0    0  0.90005342336E+02 -0.60582458363E+03 -0.60612137943E+03  0.86168875726E+03  0.00000000000E+00 0. -1.
        -11    1    5    5    0    0  0.93685130951E+01  0.17633768454E+00  0.10284440559E+02  0.13912938230E+02  0.00000000000E+00 0.  1.
         12    1    5    5    0    0 -0.16038748722E+03  0.86162633930E+02  0.11946313026E+03  0.21776038444E+03  0.00000000000E+00 0. -1.
          5    1    4    4  501    0  0.23895769995E+02  0.53699660411E+02 -0.66979768580E+01  0.59343190392E+02  0.47000000000E+01 0.  1.
         -5    1    4    4    0  501  0.80390922122E+02  0.80408242013E+03 -0.49370632100E+03  0.94698429772E+03  0.47000000000E+01 0.  1.
          1    1    1    2  502    0 -0.63067854002E+02 -0.80133140326E+01  0.36764545813E+04  0.36770042230E+04  0.00000000000E+00 0. -1.
          1    1    1    2  503    0  0.41260049894E+01  0.10203848046E+02 -0.76255611498E+02  0.77045835170E+02  0.00000000000E+00 0. -1.
<mgrwt>
<rscale>  0 0.26452358E+02</rscale>
<asrwt>0</asrwt>
<pdfrwt beam="1">  1        2 0.63225149E+00 0.63574163E+02</pdfrwt>
<pdfrwt beam="2">  1        2 0.30785469E+00 0.11006472E+02</pdfrwt>
<totfact> 0.85828252E-01</totfact>
</mgrwt>
</event>
<event>
13    1  0.1595792E-008  0.1178347E+03  0.7546771E-02  0.1492232E+00
          2   -1    0    0  502    0  0.00000000000E+00  0.00000000000E+00  0.28667870427E+04  0.28667870427E+04  0.00000000000E+00 0. -1.
          2   -1    0    0  503    0 -0.00000000000E+00 -0.00000000000E+00 -0.11431510334E+04  0.11431510334E+04  0.00000000000E+00 0. -1.
         24    2    1    2    0    0  0.87486441723E+02  0.95816184501E+02  0.14856468484E+03  0.21383765040E+03  0.82586054794E+02 0.  0.
         25    2    1    2    0    0 -0.15875888736E+03 -0.37533841369E+02  0.24382739773E+02  0.20695329769E+03  0.12498790286E+03 0.  0.
         24    2    1    2    0    0 -0.10455621559E+03 -0.70292972629E+02  0.50248930289E+03  0.52410114808E+03  0.79456967489E+02 0.  0.
        -11    1    3    3    0    0  0.74781872699E+02  0.61843869866E+02  0.14870482875E+03  0.17756722338E+03  0.00000000000E+00 0.  1.
         12    1    3    3    0    0  0.12704569025E+02  0.33972314635E+02 -0.14014390715E+00  0.36270427018E+02  0.00000000000E+00 0. -1.
        -11    1    5    5    0    0 -0.57137899552E+02 -0.58562260283E+02  0.42270786104E+03  0.43055338075E+03  0.00000000000E+00 0.  1.
         12    1    5    5    0    0 -0.47418316040E+02 -0.11730712346E+02  0.79781441847E+02  0.93547767324E+02  0.00000000000E+00 0. -1.
          5    1    4    4  501    0 -0.93174064067E+02 -0.80971953834E+02 -0.28810942705E+01  0.12356477745E+03  0.47000000000E+01 0.  1.
         -5    1    4    4    0  501 -0.65584823288E+02  0.43438112465E+02  0.27263834044E+02  0.83388520235E+02  0.47000000000E+01 0.  1.
          1    1    1    2  502    0  0.17719791937E+03  0.27102327334E+02  0.20526592544E+04  0.20604717065E+04  0.00000000000E+00 0. -1.
          1    1    1    2  503    0 -0.13692581425E+01 -0.15091697837E+02 -0.10044599726E+04  0.10045742734E+04  0.00000000000E+00 0. -1.
<mgrwt>
<rscale>  0 0.42256711E+02</rscale>
<asrwt>0</asrwt>
<pdfrwt beam="1">  1        2 0.42158633E+00 0.11783467E+03</pdfrwt>
<pdfrwt beam="2">  1        2 0.16811045E+00 0.15153686E+02</pdfrwt>
<totfact> 0.14180114E+01</totfact>
</mgrwt>
</event>
<event>
13    1  0.1595792E-008  0.5319684E+02  0.7546771E-02  0.1530783E+00
          2   -1    0    0  502    0  0.00000000000E+00  0.00000000000E+00  0.14728244649E+04  0.14728244649E+04  0.00000000000E+00 0. -1.
          2   -1    0    0  503    0 -0.00000000000E+00 -0.00000000000E+00 -0.23825529519E+04  0.23825529519E+04  0.00000000000E+00 0. -1.
         24    2    1    2    0    0 -0.76649702158E+03  0.13257094405E+03 -0.16532998239E+04  0.18288812055E+04  0.79457012490E+02 0.  0.
         25    2    1    2    0    0  0.63589189550E+03  0.14108692988E+03 -0.14172968350E+02  0.66339216345E+03  0.12499705978E+03 0.  0.
         24    2    1    2    0    0  0.10784502426E+03 -0.29614251447E+03  0.35284899862E+03  0.48551095698E+03  0.10902997475E+03 0.  0.
        -11    1    3    3    0    0 -0.55574553979E+03  0.11035620546E+03 -0.11239623443E+04  0.12586989110E+04  0.00000000000E+00 0.  1.
         12    1    3    3    0    0 -0.21075148179E+03  0.22214738598E+02 -0.52933747955E+03  0.57018229448E+03  0.00000000000E+00 0. -1.
        -11    1    5    5    0    0  0.91457894762E+02 -0.15889845765E+03  0.13566614145E+03  0.22807579506E+03  0.00000000000E+00 0.  1.
         12    1    5    5    0    0  0.16387129500E+02 -0.13724405682E+03  0.21718285717E+03  0.25743516192E+03  0.00000000000E+00 0. -1.
          5    1    4    4  501    0  0.26350399412E+03  0.53666499484E+02  0.55335836686E+02  0.27458804217E+03  0.47000000000E+01 0.  1.
         -5    1    4    4    0  501  0.37238790139E+03  0.87420430396E+02 -0.69508805036E+02  0.38880412128E+03  0.47000000000E+01 0.  1.
          1    1    1    2  502    0  0.35878869947E+00 -0.25858129681E+02  0.63797609779E+03  0.63850001797E+03  0.00000000000E+00 0. -1.
          1    1    1    2  503    0  0.22401313120E+02  0.48342770212E+02 -0.23308079126E+03  0.23909307291E+03  0.00000000000E+00 0. -1.
<mgrwt>
<rscale>  0 0.37090472E+02</rscale>
<asrwt>0</asrwt>
<pdfrwt beam="1">  1        2 0.21659184E+00 0.25860619E+02</pdfrwt>
<pdfrwt beam="2">  1        2 0.35037543E+00 0.53196838E+02</pdfrwt>
<totfact> 0.18601211E+01</totfact>
</mgrwt>
</event>
<event>
13    1  0.1595792E-008  0.8162728E+02  0.7546771E-02  0.1579212E+00
          2   -1    0    0  503    0  0.00000000000E+00  0.00000000000E+00  0.17716595100E+04  0.17716595100E+04  0.00000000000E+00 0. -1.
          2   -1    0    0  502    0 -0.00000000000E+00 -0.00000000000E+00 -0.14791730926E+04  0.14791730926E+04  0.00000000000E+00 0. -1.
         24    2    1    2    0    0  0.72104229481E+02 -0.65147383368E+02 -0.39174790091E+03  0.41156983747E+03  0.80499141472E+02 0.  0.
         25    2    1    2    0    0 -0.15747941836E+02  0.10863960957E+03  0.51044934373E+03  0.53687277819E+03  0.12499313985E+03 0.  0.
         24    2    1    2    0    0  0.36635062602E+02 -0.32258750554E+02  0.82037626196E+03  0.82579845845E+03  0.80889603771E+02 0.  0.
        -11    1    5    5    0    0 -0.20224670256E+02  0.95830709401E+01  0.14113581500E+03  0.14289923307E+03  0.00000000000E+00 0.  1.
         12    1    5    5    0    0  0.56859732859E+02 -0.41841821494E+02  0.67924044696E+03  0.68289922539E+03  0.00000000000E+00 0. -1.
        -13    1    3    3    0    0  0.31764643861E+02 -0.38892432801E+02 -0.32731569976E+03  0.33114525701E+03  0.00000000000E+00 0.  1.
         14    1    3    3    0    0  0.40339585621E+02 -0.26254950567E+02 -0.64432201149E+02  0.80424580460E+02  0.00000000000E+00 0. -1.
          5    1    4    4  501    0 -0.39544805127E+02  0.12577351559E+03  0.35747229984E+03  0.38103976695E+03  0.47000000000E+01 0.  1.
         -5    1    4    4    0  501  0.23796863291E+02 -0.17133906025E+02  0.15297704389E+03  0.15583301125E+03  0.47000000000E+01 0.  1.
          1    1    1    2  502    0 -0.81295359764E+02 -0.71981501646E+01 -0.10599301280E+04  0.10630675543E+04  0.00000000000E+00 0. -1.
          1    1    1    2  503    0 -0.11695990483E+02 -0.40353254836E+01  0.41333884063E+03  0.41352397418E+03  0.00000000000E+00 0. -1.
<mgrwt>
<rscale>  0 0.31779518E+02</rscale>
<asrwt>0</asrwt>
<pdfrwt beam="1">  1        2 0.26053817E+00 0.12372552E+02</pdfrwt>
<pdfrwt beam="2">  1        2 0.21752545E+00 0.81627278E+02</pdfrwt>
<totfact> 0.38079353E+01</totfact>
</mgrwt>
</event>
<event>
13    1  0.1595792E-008  0.7364137E+02  0.7546771E-02  0.1536496E+00
          2   -1    0    0  502    0  0.00000000000E+00  0.00000000000E+00  0.35109988040E+03  0.35109988040E+03  0.00000000000E+00 0. -1.
          2   -1    0    0  503    0 -0.00000000000E+00 -0.00000000000E+00 -0.30596431806E+04  0.30596431806E+04  0.00000000000E+00 0. -1.
         24    2    1    2    0    0 -0.65049523070E+02 -0.75927358920E+02 -0.21730267710E+04  0.21769174156E+04  0.83232701443E+02 0.  0.
         25    2    1    2    0    0 -0.69449300253E+02 -0.57624368730E+02 -0.22533915988E+03  0.27303338425E+03  0.12500287501E+03 0.  0.
         24    2    1    2    0    0  0.77231396375E+02  0.14100004984E+03 -0.13906737812E+03  0.22559733022E+03  0.75556052735E+02 0.  0.
        -13    1    3    3    0    0 -0.62241075554E+02 -0.22648770012E+02 -0.75899041222E+03  0.76187490056E+03  0.00000000000E+00 0.  1.
         14    1    3    3    0    0 -0.28084475160E+01 -0.53278588908E+02 -0.14140363588E+04  0.14150425151E+04  0.00000000000E+00 0. -1.
        -13    1    5    5    0    0  0.76364773992E+02  0.10936010678E+03 -0.72325953795E+02  0.15173086454E+03  0.00000000000E+00 0.  1.
         14    1    5    5    0    0  0.86662238300E+00  0.31639943054E+02 -0.66741424322E+02  0.73866465675E+02  0.00000000000E+00 0. -1.
          5    1    4    4  501    0 -0.85497114852E+01 -0.86168556106E+02 -0.12395747091E+03  0.15128007873E+03  0.47000000000E+01 0. -1.
         -5    1    4    4    0  501 -0.60899588768E+02  0.28544187376E+02 -0.10138168897E+03  0.12175330552E+03  0.47000000000E+01 0. -1.
          1    1    1    2  502    0  0.73671582800E+02 -0.54366841572E-01  0.27704795788E+03  0.28667590766E+03  0.00000000000E+00 0. -1.
          1    1    1    2  503    0 -0.16404155852E+02 -0.73939553458E+01 -0.44815794901E+03  0.44851902319E+03  0.00000000000E+00 0. -1.
<mgrwt>
<rscale>  0 0.36401481E+02</rscale>
<asrwt>0</asrwt>
<pdfrwt beam="1">  1        2 0.51632335E-01 0.73641373E+02</pdfrwt>
<pdfrwt beam="2">  1        2 0.44994753E+00 0.17993524E+02</pdfrwt>
<totfact> 0.54713919E+01</totfact>
</mgrwt>
</event>
<event>
13    1  0.1595792E-008  0.1074915E+03  0.7546771E-02  0.1438270E+00
          2   -1    0    0  503    0  0.00000000000E+00  0.00000000000E+00  0.23395588204E+04  0.23395588204E+04  0.00000000000E+00 0. -1.
          2   -1    0    0  502    0 -0.00000000000E+00 -0.00000000000E+00 -0.28934196828E+04  0.28934196828E+04  0.00000000000E+00 0. -1.
         24    2    1    2    0    0  0.26358840358E+02  0.11387893256E+03 -0.40867077684E+03  0.43307102719E+03  0.82918701151E+02 0.  0.
         25    2    1    2    0    0 -0.13115311204E+03 -0.16108038933E+03 -0.46306591356E+02  0.24681520807E+03  0.12500166362E+03 0.  0.
         24    2    1    2    0    0  0.73996583342E+01  0.12497939127E+03  0.23469813415E+03  0.27822647596E+03  0.81560741554E+02 0.  0.
        -11    1    3    3    0    0  0.31031574418E+02  0.42257863941E+02 -0.28747879284E+03  0.29222036550E+03  0.00000000000E+00 0.  1.
         12    1    3    3    0    0 -0.46727340605E+01  0.71621068623E+02 -0.12119198399E+03  0.14085066169E+03  0.00000000000E+00 0. -1.
        -13    1    5    5    0    0 -0.14882991957E+02  0.32146586784E+02  0.13747779184E+03  0.14196848150E+03  0.00000000000E+00 0.  1.
         14    1    5    5    0    0  0.22282650291E+02  0.92832804486E+02  0.97220342311E+02  0.13625799445E+03  0.00000000000E+00 0. -1.
          5    1    4    4  501    0 -0.90629002036E+02 -0.76898932975E+02  0.33797939115E+02  0.12365861309E+03  0.47000000000E+01 0.  1.
         -5    1    4    4    0  501 -0.40524110005E+02 -0.84181456353E+02 -0.80104530471E+02  0.12315659498E+03  0.47000000000E+01 0.  1.
          1    1    1    2  502    0  0.42880915471E+01 -0.24138535233E+02 -0.23026936555E+04  0.23028241635E+04  0.00000000000E+00 0. -1.
          1    1    1    2  503    0  0.93106521802E+02 -0.53639399274E+02  0.19691120271E+04  0.19720416285E+04  0.00000000000E+00 0. -1.
<mgrwt>
<rscale>  0 0.51335269E+02</rscale>
<asrwt>0</asrwt>
<pdfrwt beam="1">  1        2 0.34405277E+00 0.10749147E+03</pdfrwt>
<pdfrwt beam="2">  1        2 0.42550290E+00 0.24516456E+02</pdfrwt>
<totfact> 0.40192271E+00</totfact>
</mgrwt>
</event>
<event>
13    1  0.1595792E-008  0.6806377E+02  0.7546771E-02  0.1635580E+00
          2   -1    0    0  502    0  0.00000000000E+00  0.00000000000E+00  0.10749520368E+04  0.10749520368E+04  0.00000000000E+00 0. -1.
          2   -1    0    0  503    0 -0.00000000000E+00 -0.00000000000E+00 -0.27736156736E+04  0.27736156736E+04  0.00000000000E+00 0. -1.
         24    2    1    2    0    0 -0.46851686395E+01 -0.11681179712E+02 -0.85026599278E+03  0.85415638567E+03  0.80451674518E+02 0.  0.
         25    2    1    2    0    0 -0.38352432373E+02 -0.16643354633E+02 -0.56378661295E+03  0.57898818002E+03  0.12499622929E+03 0.  0.
         24    2    1    2    0    0  0.17886992749E+02  0.80101698806E+02 -0.90130713153E+02  0.14619797375E+03  0.80709822295E+02 0.  0.
        -11    1    5    5    0    0  0.21049633529E+02  0.94978913891E+02 -0.87333159746E+02  0.13073317080E+03  0.00000000000E+00 0.  1.
         12    1    5    5    0    0 -0.31626407796E+01 -0.14877215085E+02 -0.27975534070E+01  0.15464802956E+02  0.00000000000E+00 0. -1.
        -13    1    3    3    0    0 -0.11484607753E+02 -0.45287467142E+02 -0.53262211542E+03  0.53466734399E+03  0.00000000000E+00 0.  1.
         14    1    3    3    0    0  0.67994391132E+01  0.33606287430E+02 -0.31764387736E+03  0.31948904168E+03  0.00000000000E+00 0. -1.
          5    1    4    4  501    0 -0.66440052899E+02 -0.30579234882E+02 -0.18668501791E+03  0.20055611721E+03  0.47000000000E+01 0. -1.
         -5    1    4    4    0  501  0.28087620527E+02  0.13935880249E+02 -0.37710159504E+03  0.37843206281E+03  0.47000000000E+01 0. -1.
          1    1    1    2  502    0  0.31115208817E+02 -0.60543852860E+02  0.10362328687E+04  0.10384663079E+04  0.00000000000E+00 0. -1.
          1    1    1    2  503    0 -0.59646005536E+01  0.87666883998E+01 -0.12307131866E+04  0.12307588631E+04  0.00000000000E+00 0. -1.
<mgrwt>
<rscale>  0 0.26864565E+02</rscale>
<asrwt>0</asrwt>
<pdfrwt beam="1">  1        2 0.15808118E+00 0.68063775E+02</pdfrwt>
<pdfrwt beam="2">  1        2 0.40788465E+00 0.10603362E+02</pdfrwt>
<totfact> 0.23520039E+01</totfact>
</mgrwt>
</event>
<event>
13    1  0.1595792E-008  0.1475522E+03  0.7546771E-02  0.1328177E+00
          2   -1    0    0  503    0  0.00000000000E+00  0.00000000000E+00  0.27077032220E+04  0.27077032220E+04  0.00000000000E+00 0. -1.
          2   -1    0    0  502    0 -0.00000000000E+00 -0.00000000000E+00 -0.21868039670E+04  0.21868039670E+04  0.00000000000E+00 0. -1.
         24    2    1    2    0    0 -0.32949030751E+02  0.55438773364E+01 -0.24262519902E+03  0.25882235969E+03  0.83699781792E+02 0.  0.
         25    2    1    2    0    0 -0.36063176729E+02 -0.25683826384E+03 -0.16115209822E+03  0.32994276843E+03  0.12500314071E+03 0.  0.
         24    2    1    2    0    0 -0.61075070302E+02  0.46820619301E+02 -0.13469091925E+02  0.11299815437E+03  0.81638421409E+02 0.  0.
        -13    1    3    3    0    0 -0.42976535059E+01  0.35153228995E+02 -0.46689452029E+02  0.58601401563E+02  0.00000000000E+00 0.  1.
         14    1    3    3    0    0 -0.28651377245E+02 -0.29609351659E+02 -0.19593574699E+03  0.20022095812E+03  0.00000000000E+00 0. -1.
        -13    1    5    5    0    0 -0.25726074222E+02  0.59765700519E+02 -0.30282791016E+02  0.71769194542E+02  0.00000000000E+00 0.  1.
         14    1    5    5    0    0 -0.35348996080E+02 -0.12945081218E+02  0.16813699091E+02  0.41228959831E+02  0.00000000000E+00 0. -1.
          5    1    4    4  501    0 -0.51670092621E+02 -0.16891522541E+03 -0.16314344776E+03  0.24049953512E+03  0.47000000000E+01 0. -1.
         -5    1    4    4    0  501  0.15606915892E+02 -0.87923038439E+02  0.19913495388E+01  0.89443233311E+02  0.47000000000E+01 0. -1.
          1    1    1    2  502    0  0.17069078405E+03  0.18828902919E+03 -0.16171884911E+04  0.16370359550E+04  0.00000000000E+00 0. -1.
          1    1    1    2  503    0 -0.40603506270E+02  0.16184738019E+02  0.25553341352E+04  0.25557079515E+04  0.00000000000E+00 0. -1.
<mgrwt>
<rscale>  0 0.80309107E+02</rscale>
<asrwt>0</asrwt>
<pdfrwt beam="1">  1        2 0.39819165E+00 0.43710302E+02</pdfrwt>
<pdfrwt beam="2">  1        2 0.32158882E+00 0.14755223E+03</pdfrwt>
<totfact> 0.51549319E+00</totfact>
</mgrwt>
</event>
<event>
13    1  0.1595792E-008  0.8602112E+02  0.7546771E-02  0.1381621E+00
          2   -1    0    0  503    0  0.00000000000E+00  0.00000000000E+00  0.44002420282E+03  0.44002420282E+03  0.00000000000E+00 0. -1.
         -1   -1    0    0    0  501 -0.00000000000E+00 -0.00000000000E+00 -0.62098805099E+03  0.62098805099E+03  0.00000000000E+00 0.  1.
         24    2    1    2    0    0  0.11253639277E+03 -0.11084852248E+03 -0.12717147809E+03  0.21781771918E+03  0.79499303888E+02 0.  0.
         25    2    1    2    0    0 -0.22947459885E+03  0.89866654351E+02 -0.97091497910E+02  0.29289227229E+03  0.12499806847E+03 0.  0.
         24    2    1    2    0    0  0.27774487016E+02  0.22341290184E+02  0.34459403359E+02  0.93312462850E+02  0.79051944107E+02 0.  0.
        -13    1    5    5    0    0  0.37751280327E+02  0.42943468331E+02  0.70641582530E+01  0.57612524424E+02  0.00000000000E+00 0.  1.
         14    1    5    5    0    0 -0.99767933112E+01 -0.20602178147E+02  0.27395245106E+02  0.35699938426E+02  0.00000000000E+00 0. -1.
        -13    1    3    3    0    0  0.88030559102E+02 -0.10544841715E+03 -0.13391002434E+03  0.19183493591E+03  0.00000000000E+00 0.  1.
         14    1    3    3    0    0  0.24505833665E+02 -0.54001053365E+01  0.67385462574E+01  0.25982783279E+02  0.00000000000E+00 0. -1.
          5    1    4    4  502    0 -0.19292569469E+02  0.34601866176E+02 -0.60481265357E+02  0.72453887671E+02  0.47000000000E+01 0. -1.
         -5    1    4    4    0  502 -0.21018202938E+03  0.55264788175E+02 -0.36610232553E+02  0.22043838462E+03  0.47000000000E+01 0. -1.
          1    1    1    2  503    0  0.16155007902E+02  0.44854609818E+02  0.22195857594E+03  0.22702098964E+03  0.00000000000E+00 0. -1.
         -2    1    1    2    0  501  0.73008711163E+02 -0.46214031870E+02 -0.21311885148E+03  0.22996880985E+03  0.00000000000E+00 0.  1.
<mgrwt>
<rscale>  0 0.64039599E+02</rscale>
<asrwt>0</asrwt>
<pdfrwt beam="1">  1        2 0.64709442E-01 0.47675154E+02</pdfrwt>
<pdfrwt beam="2">  1       -1 0.91321771E-01 0.86021121E+02</pdfrwt>
<totfact> 0.11298742E+02</totfact>
</mgrwt>
</event>
<event>
13    1  0.1595792E-008  0.2949928E+02  0.7546771E-02  0.1612129E+00
          2   -1    0    0  503    0  0.00000000000E+00  0.00000000000E+00  0.59715965183E+03  0.59715965183E+03  0.00000000000E+00 0. -1.
         -1   -1    0    0    0  501 -0.00000000000E+00 -0.00000000000E+00 -0.19144293492E+04  0.19144293492E+04  0.00000000000E+00 0.  1.
         24    2    1    2    0    0 -0.68639042093E+01  0.18808741517E+02 -0.26522798643E+03  0.27822450876E+03  0.81621752917E+02 0.  0.
         25    2    1    2    0    0  0.34508087466E+02 -0.12209980186E+03 -0.27919495486E+03  0.33115892992E+03  0.12496897346E+03 0.  0.
         24    2    1    2    0    0 -0.36054675936E+01  0.95041797870E+02  0.12508633970E+03  0.17804192017E+03  0.83704182799E+02 0.  0.
        -11    1    3    3    0    0 -0.37074851277E+02  0.33899915063E+02 -0.15469473495E+03  0.16264750185E+03  0.00000000000E+00 0.  1.
         12    1    3    3    0    0  0.30210947068E+02 -0.15091173546E+02 -0.11053325149E+03  0.11557700691E+03  0.00000000000E+00 0. -1.
        -13    1    5    5    0    0  0.35730474991E+02  0.30894388341E+02  0.71383136406E+02  0.85596041014E+02  0.00000000000E+00 0.  1.
         14    1    5    5    0    0 -0.39335942585E+02  0.64147409529E+02  0.53703203296E+02  0.92445879154E+02  0.00000000000E+00 0. -1.
          5    1    4    4  502    0  0.48636232416E+02 -0.14258849830E+03 -0.21904679559E+03  0.26589575327E+03  0.47000000000E+01 0.  1.
         -5    1    4    4    0  502 -0.14128144950E+02  0.20488696437E+02 -0.60148159276E+02  0.65263176645E+02  0.47000000000E+01 0.  1.
          1    1    1    2  503    0 -0.18823142147E+02 -0.20800995319E+02  0.41247265536E+03  0.41342554772E+03  0.00000000000E+00 0. -1.
         -2    1    1    2    0  501 -0.52155735158E+01  0.29050257795E+02 -0.13104057512E+04  0.13107380945E+04  0.00000000000E+00 0.  1.
<mgrwt>
<rscale>  0 0.28767245E+02</rscale>
<asrwt>0</asrwt>
<pdfrwt beam="1">  1        2 0.87817597E-01 0.28053379E+02</pdfrwt>
<pdfrwt beam="2">  1       -1 0.28153372E+00 0.29499275E+02</pdfrwt>
<totfact> 0.42480886E+00</totfact>
</mgrwt>
</event>
<event>
13    1  0.1595792E-008  0.2097786E+03  0.7546771E-02  0.1366003E+00
          2   -1    0    0  503    0  0.00000000000E+00  0.00000000000E+00  0.63436466193E+03  0.63436466193E+03  0.00000000000E+00 0. -1.
          2   -1    0    0  502    0 -0.00000000000E+00 -0.00000000000E+00 -0.56161564863E+04  0.56161564863E+04  0.00000000000E+00 0. -1.
         24    2    1    2    0    0  0.50809536420E+02 -0.55351404484E+02 -0.13003111206E+03  0.16963353442E+03  0.78880028693E+02 0.  0.
         25    2    1    2    0    0 -0.26055354454E+03  0.34106131499E+03 -0.56465197751E+02  0.45058172967E+03  0.12499842559E+03 0.  0.
         24    2    1    2    0    0  0.11562589433E+03 -0.87492073187E+02 -0.12994533437E+02  0.16483467151E+03  0.77313651585E+02 0.  0.
        -11    1    3    3    0    0  0.51195425611E+02 -0.71567979618E+01 -0.10075595753E+03  0.11324289973E+03  0.00000000000E+00 0.  1.
         12    1    3    3    0    0 -0.38588919095E+00 -0.48194606522E+02 -0.29275154527E+02  0.56390634692E+02  0.00000000000E+00 0. -1.
        -13    1    5    5    0    0  0.36193479950E+02  0.10964431675E+02 -0.29010712370E+01  0.37928919931E+02  0.00000000000E+00 0.  1.
         14    1    5    5    0    0  0.79432414381E+02 -0.98456504862E+02 -0.10093462200E+02  0.12690575158E+03  0.00000000000E+00 0. -1.
          5    1    4    4  501    0 -0.89988588544E+02  0.51957192999E+02 -0.48542208920E+02  0.11478646270E+03  0.47000000000E+01 0. -1.
         -5    1    4    4    0  501 -0.17056495599E+03  0.28910412199E+03 -0.79229888310E+01  0.33579526697E+03  0.47000000000E+01 0. -1.
          1    1    1    2  502    0  0.10509492847E+03 -0.17888547096E+03 -0.51214217807E+04  0.51256224999E+04  0.00000000000E+00 0. -1.
          1    1    1    2  503    0 -0.10976814684E+02 -0.19332366357E+02  0.33912079957E+03  0.33984871274E+03  0.00000000000E+00 0. -1.
<mgrwt>
<rscale>  0 0.68290942E+02</rscale>
<asrwt>0</asrwt>
<pdfrwt beam="1">  1        2 0.93288926E-01 0.22231303E+02</pdfrwt>
<pdfrwt beam="2">  1        2 0.82590532E+00 0.20977865E+03</pdfrwt>
<totfact> 0.14159064E-01</totfact>
</mgrwt>
</event>
<event>
13    1  0.1595792E-008  0.1502325E+03  0.7546771E-02  0.1334602E+00
          2   -1    0    0  502    0  0.00000000000E+00  0.00000000000E+00  0.17067371224E+04  0.17067371224E+04  0.00000000000E+00 0. -1.
          2   -1    0    0  503    0 -0.00000000000E+00 -0.00000000000E+00 -0.32501162690E+03  0.32501162690E+03  0.00000000000E+00 0. -1.
         24    2    1    2    0    0 -0.16241446232E+02 -0.99906516557E+02 -0.50706940487E+02  0.13841698005E+03  0.79642764437E+02 0.  0.
         25    2    1    2    0    0  0.18727714400E+03  0.49873493017E+02  0.71316737154E+03  0.74953000530E+03  0.12500973977E+03 0.  0.
         24    2    1    2    0    0  0.10119466818E+02 -0.49955514948E+02  0.43051230781E+03  0.44094664478E+03  0.80592426977E+02 0.  0.
        -13    1    3    3    0    0 -0.12893390126E+02  0.43109409377E+01 -0.28831221351E+02  0.31875743839E+02  0.00000000000E+00 0.  1.
         14    1    3    3    0    0 -0.33480561066E+01 -0.10421745750E+03 -0.21875719136E+02  0.10654123621E+03  0.00000000000E+00 0. -1.
        -13    1    5    5    0    0  0.17100083734E+01  0.99157543351E+01  0.51394191015E+01  0.11298669894E+02  0.00000000000E+00 0.  1.
         14    1    5    5    0    0  0.84094584448E+01 -0.59871269284E+02  0.42537288871E+03  0.42964797489E+03  0.00000000000E+00 0. -1.
          5    1    4    4  501    0  0.83041799804E+02  0.60796064178E+02  0.19186690150E+03  0.21777763849E+03  0.47000000000E+01 0. -1.
         -5    1    4    4    0  501  0.10423534419E+03 -0.10922571161E+02  0.52130047004E+03  0.53175236681E+03  0.47000000000E+01 0. -1.
          1    1    1    2  502    0 -0.29644788034E+02 -0.27705553612E+02  0.44726920734E+03  0.44910595074E+03  0.00000000000E+00 0. -1.
          1    1    1    2  503    0 -0.15151037655E+03  0.12769409210E+03 -0.15851645067E+03  0.25374916846E+03  0.00000000000E+00 0. -1.
<mgrwt>
<rscale>  0 0.78075803E+02</rscale>
<asrwt>0</asrwt>
<pdfrwt beam="1">  1        2 0.25099075E+00 0.40575992E+02</pdfrwt>
<pdfrwt beam="2">  1        2 0.47795828E-01 0.15023246E+03</pdfrwt>
<totfact> 0.22479611E+02</totfact>
</mgrwt>
</event>
<event>
13    1  0.1595792E-008  0.1848480E+03  0.7546771E-02  0.1304432E+00
          2   -1    0    0  502    0  0.00000000000E+00  0.00000000000E+00  0.15043537343E+04  0.15043537343E+04  0.00000000000E+00 0. -1.
          2   -1    0    0  503    0 -0.00000000000E+00 -0.00000000000E+00 -0.15287376154E+04  0.15287376154E+04  0.00000000000E+00 0. -1.
         24    2    1    2    0    0 -0.98038959661E+02 -0.13959841007E+03 -0.22577196822E+03  0.29415631745E+03  0.80346771908E+02 0.  0.
         25    2    1    2    0    0  0.26268104432E+03  0.45492022607E+02  0.93109848337E+03  0.97654535484E+03  0.12500235661E+03 0.  0.
         24    2    1    2    0    0 -0.28376461610E+02 -0.86901028674E+02  0.18691515133E+03  0.22306832171E+03  0.80406405201E+02 0.  0.
        -11    1    3    3    0    0 -0.81445918110E+02 -0.13839748848E+03 -0.16143342412E+03  0.22770167504E+03  0.00000000000E+00 0.  1.
         12    1    3    3    0    0 -0.16593041551E+02 -0.12009215920E+01 -0.64338544101E+02  0.66454642409E+02  0.00000000000E+00 0. -1.
        -11    1    5    5    0    0 -0.40223797443E+02 -0.18118700437E+02  0.11349364427E+03  0.12176636841E+03  0.00000000000E+00 0.  1.
         12    1    5    5    0    0  0.11847335833E+02 -0.68782328237E+02  0.73421507059E+02  0.10130195330E+03  0.00000000000E+00 0. -1.
          5    1    4    4  501    0  0.19261739728E+02 -0.30604776435E+02  0.77526201178E+02  0.85674201642E+02  0.47000000000E+01 0. -1.
         -5    1    4    4    0  501  0.24341930459E+03  0.76096799042E+02  0.85357228219E+03  0.89087115320E+03  0.47000000000E+01 0. -1.
          1    1    1    2  502    0 -0.17042822216E+02  0.39684691855E+02  0.30284725146E+03  0.30591140919E+03  0.00000000000E+00 0. -1.
          1    1    1    2  503    0 -0.11922280083E+03  0.14132272428E+03 -0.12194727991E+04  0.12334099466E+04  0.00000000000E+00 0. -1.
<mgrwt>
<rscale>  0 0.89350388E+02</rscale>
<asrwt>0</asrwt>
<pdfrwt beam="1">  1        2 0.22122849E+00 0.43189496E+02</pdfrwt>
<pdfrwt beam="2">  1        2 0.22481435E+00 0.18484800E+03</pdfrwt>
<totfact> 0.39280608E+01</totfact>
</mgrwt>
</event>
<event>
13    1  0.1595792E-008  0.8065598E+02  0.7546771E-02  0.1522333E+00
          2   -1    0    0  502    0  0.00000000000E+00  0.00000000000E+00  0.37303460126E+03  0.37303460126E+03  0.00000000000E+00 0. -1.
          2   -1    0    0  503    0 -0.00000000000E+00 -0.00000000000E+00 -0.24637039917E+04  0.24637039917E+04  0.00000000000E+00 0. -1.
         24    2    1    2    0    0 -0.31410853294E+02  0.29423710075E+02 -0.34639743090E+03  0.35809901168E+03  0.79945766706E+02 0.  0.
         25    2    1    2    0    0 -0.69617835527E+02 -0.11085023413E+03 -0.50724989004E+03  0.53856976621E+03  0.12498209753E+03 0.  0.
         24    2    1    2    0    0  0.20069318027E+02  0.34969270088E+02 -0.87127823172E+02  0.12525488816E+03  0.80448132731E+02 0.  0.
        -11    1    5    5    0    0  0.17660150093E+02 -0.33630781448E+01  0.10167118219E+02  0.20653365072E+02  0.00000000000E+00 0.  1.
         12    1    5    5    0    0  0.24091679335E+01  0.38332348233E+02 -0.97294941391E+02  0.10460152308E+03  0.00000000000E+00 0. -1.
        -13    1    3    3    0    0  0.16831949579E+02  0.82122464865E+01 -0.19712939820E+02  0.27191092574E+02  0.00000000000E+00 0.  1.
         14    1    3    3    0    0 -0.48242802873E+02  0.21211463588E+02 -0.32668449108E+03  0.33090791910E+03  0.00000000000E+00 0. -1.
          5    1    4    4  501    0 -0.36751664698E+02 -0.86658825948E+02 -0.13842018402E+03  0.16745947067E+03  0.47000000000E+01 0.  1.
         -5    1    4    4    0  501 -0.32866170829E+02 -0.24191408179E+02 -0.36882970602E+03  0.37111029554E+03  0.47000000000E+01 0.  1.
          1    1    1    2  502    0  0.17762017424E+02 -0.31487455963E+01  0.33112607983E+03  0.33161707526E+03  0.00000000000E+00 0. -1.
          1    1    1    2  503    0  0.63197353370E+02  0.49605999560E+02 -0.14810203261E+04  0.14831978516E+04  0.00000000000E+00 0. -1.
<mgrwt>
<rscale>  0 0.38143801E+02</rscale>
<asrwt>0</asrwt>
<pdfrwt beam="1">  1        2 0.54858028E-01 0.18038954E+02</pdfrwt>
<pdfrwt beam="2">  1        2 0.36230942E+00 0.80655983E+02</pdfrwt>
<totfact> 0.78049860E+01</totfact>
</mgrwt>
</event>
<event>
13    1  0.1595792E-008  0.2504611E+03  0.7546771E-02  0.1271358E+00
          2   -1    0    0  503    0  0.00000000000E+00  0.00000000000E+00  0.42994623320E+04  0.42994623320E+04  0.00000000000E+00 0. -1.
          2   -1    0    0  502    0 -0.00000000000E+00 -0.00000000000E+00 -0.21188617058E+03  0.21188617058E+03  0.00000000000E+00 0. -1.
         24    2    1    2    0    0 -0.15629863988E+02 -0.11180578718E+03  0.28356887998E+03  0.31580123511E+03  0.81081956750E+02 0.  0.
         25    2    1    2    0    0 -0.20005252288E+03 -0.40772235987E+02  0.17168242945E+04  0.17334338153E+04  0.12499498781E+03 0.  0.
         24    2    1    2    0    0 -0.10988678202E+02 -0.16659680300E+02  0.65481095878E+03  0.66026060468E+03  0.82270154719E+02 0.  0.
        -11    1    5    5    0    0 -0.34757080167E+02 -0.13951737044E+02  0.14088603775E+03  0.14577922081E+03  0.00000000000E+00 0.  1.
         12    1    5    5    0    0  0.23768401965E+02 -0.27079432558E+01  0.51392492103E+03  0.51448138387E+03  0.00000000000E+00 0. -1.
        -13    1    3    3    0    0 -0.14400406509E+02 -0.12451317187E+03  0.24546735410E+03  0.27561771279E+03  0.00000000000E+00 0.  1.
         14    1    3    3    0    0 -0.12294574790E+01  0.12707384694E+02  0.38101525880E+02  0.40183522317E+02  0.00000000000E+00 0. -1.
          5    1    4    4  501    0 -0.74740359456E+02 -0.29996862232E+02  0.11489559200E+04  0.11517845845E+04  0.47000000000E+01 0. -1.
         -5    1    4    4    0  501 -0.12531216342E+03 -0.10775373755E+02  0.56786837447E+03  0.58164923081E+03  0.47000000000E+01 0. -1.
          1    1    1    2  502    0  0.21955042114E+03  0.12632912405E+03 -0.97459319453E+02  0.27140330498E+03  0.00000000000E+00 0. -1.
          1    1    1    2  503    0  0.71206439335E+01  0.42908579413E+02  0.15298313477E+04  0.15304495425E+04  0.00000000000E+00 0. -1.
<mgrwt>
<rscale>  0 0.10437388E+03</rscale>
<asrwt>0</asrwt>
<pdfrwt beam="1">  1        2 0.63227382E+00 0.43495399E+02</pdfrwt>
<pdfrwt beam="2">  1        2 0.31159734E-01 0.25046111E+03</pdfrwt>
<totfact> 0.14392893E+01</totfact>
</mgrwt>
</event>
<event>
13    1  0.1595792E-008  0.9465061E+02  0.7546771E-02  0.1351679E+00
          2   -1    0    0  503    0  0.00000000000E+00  0.00000000000E+00  0.31615132012E+04  0.31615132012E+04  0.00000000000E+00 0. -1.
          2   -1    0    0  502    0 -0.00000000000E+00 -0.00000000000E+00 -0.54921359457E+03  0.54921359457E+03  0.00000000000E+00 0. -1.
         24    2    1    2    0    0 -0.29949533709E+02 -0.66498814609E+02 -0.84307795632E+02  0.13605856583E+03  0.78006807501E+02 0.  0.
         25    2    1    2    0    0  0.21967470387E+03  0.12290531510E+03  0.25094891407E+03  0.37678168777E+03  0.12500556293E+03 0.  0.
         24    2    1    2    0    0 -0.20812446858E+03 -0.21223265558E+02  0.15509190107E+04  0.15670774023E+04  0.81336249781E+02 0.  0.
        -13    1    3    3    0    0 -0.34153227673E+02 -0.41968087023E+02 -0.66570762367E+01  0.54516785973E+02  0.00000000000E+00 0.  1.
         14    1    3    3    0    0  0.42036939647E+01 -0.24530727586E+02 -0.77650719396E+02  0.81541779852E+02  0.00000000000E+00 0. -1.
        -13    1    5    5    0    0 -0.63701738860E+02  0.92155819604E+01  0.26449263218E+03  0.27221166574E+03  0.00000000000E+00 0.  1.
         14    1    5    5    0    0 -0.14442272972E+03 -0.30438847518E+02  0.12864263785E+04  0.12948657365E+04  0.00000000000E+00 0. -1.
          5    1    4    4  501    0  0.66108583112E+02  0.99233826635E+01  0.73569708193E+01  0.67416862165E+02  0.47000000000E+01 0. -1.
         -5    1    4    4    0  501  0.15356612076E+03  0.11298193244E+03  0.24359194325E+03  0.30936482560E+03  0.47000000000E+01 0. -1.
          1    1    1    2  502    0  0.33870246631E+02 -0.88573466662E+02 -0.36130148631E+03  0.37353877525E+03  0.00000000000E+00 0. -1.
          1    1    1    2  503    0 -0.15470948208E+02  0.53390231724E+02  0.12560409638E+04  0.12572703647E+04  0.00000000000E+00 0. -1.
<mgrwt>
<rscale>  0 0.72534840E+02</rscale>
<asrwt>0</asrwt>
<pdfrwt beam="1">  1        2 0.46492840E+00 0.55586573E+02</pdfrwt>
<pdfrwt beam="2">  1        2 0.80766706E-01 0.94650611E+02</pdfrwt>
<totfact> 0.24367962E+01</totfact>
</mgrwt>
</event>
<event>
13    1  0.1595792E-008  0.6903294E+02  0.7546771E-02  0.1437390E+00
         -1   -1    0    0    0  501  0.00000000000E+00  0.00000000000E+00  0.48084967923E+03  0.48084967923E+03  0.00000000000E+00 0.  1.
         -1   -1    0    0    0  502 -0.00000000000E+00 -0.00000000000E+00 -0.32656021075E+03  0.32656021075E+03  0.00000000000E+00 0.  1.
         24    2    1    2    0    0 -0.56292992211E+02 -0.14781454402E+02 -0.87331530946E+01  0.97582102344E+02  0.77837050102E+02 0.  0.
         25    2    1    2    0    0  0.14295936784E+03 -0.25347028703E+02 -0.45451259233E+02  0.19689572933E+03  0.12498903370E+03 0.  0.
         24    2    1    2    0    0 -0.57359188976E+02 -0.99433789037E+01  0.18739950294E+03  0.20976843396E+03  0.74130121016E+02 0.  0.
        -11    1    3    3    0    0 -0.75066254524E+02 -0.36659178950E+01 -0.94854260652E+01  0.75751929546E+02  0.00000000000E+00 0.  1.
         12    1    3    3    0    0  0.18773262314E+02 -0.11115536507E+02  0.75227297060E+00  0.21830172797E+02  0.00000000000E+00 0. -1.
        -13    1    5    5    0    0 -0.23844836137E+02  0.30829737599E+02  0.56595152473E+02  0.68717248302E+02  0.00000000000E+00 0.  1.
         14    1    5    5    0    0 -0.33514352838E+02 -0.40773116503E+02  0.13080435046E+03  0.14105118566E+03  0.00000000000E+00 0. -1.
          5    1    4    4  503    0  0.37013259067E+02 -0.65893496174E+02 -0.33260382640E+02  0.82705968577E+02  0.47000000000E+01 0. -1.
         -5    1    4    4    0  503  0.10594610877E+03  0.40546467471E+02 -0.12190876593E+02  0.11418976075E+03  0.47000000000E+01 0. -1.
         -2    1    1    2    0  501  0.33166412125E+02  0.19407133911E+02  0.15097855705E+03  0.15579208076E+03  0.00000000000E+00 0.  1.
         -2    1    1    2    0  502 -0.62473598777E+02  0.30664728098E+02 -0.12990417918E+03  0.14737154359E+03  0.00000000000E+00 0.  1.
<mgrwt>
<rscale>  0 0.51504763E+02</rscale>
<asrwt>0</asrwt>
<pdfrwt beam="1">  1       -1 0.70713188E-01 0.38427174E+02</pdfrwt>
<pdfrwt beam="2">  1       -1 0.48023560E-01 0.69032935E+02</pdfrwt>
<totfact> 0.83440686E+01</totfact>
</mgrwt>
</event>
<event>
13    1  0.1595792E-008  0.7740978E+02  0.7546771E-02  0.1534761E+00
         -3   -1    0    0    0  501 -0.00000000000E+00  0.00000000000E+00  0.22488968921E+04  0.22488968921E+04  0.00000000000E+00 0.  1.
          2   -1    0    0  503    0  0.00000000000E+00 -0.00000000000E+00 -0.95026033911E+03  0.95026033911E+03  0.00000000000E+00 0. -1.
         24    2    1    2    0    0  0.27140141083E+03 -0.23537440534E+03  0.94957136500E+03  0.10188374734E+04  0.85347428475E+02 0.  0.
         25    2    1    2    0    0 -0.71003563633E+03  0.48681490078E+03  0.39396320497E+03  0.95497394963E+03  0.12501553952E+03 0.  0.
         24    2    1    2    0    0  0.49513843648E+03 -0.30129687234E+03  0.31236110594E+03  0.66333381242E+03  0.80625117874E+02 0.  0.
        -11    1    5    5    0    0  0.31819717548E+03 -0.21333454089E+03  0.16640598905E+03  0.41767454078E+03  0.00000000000E+00 0.  1.
         12    1    5    5    0    0  0.17694126100E+03 -0.87962331453E+02  0.14595511689E+03  0.24565927164E+03  0.00000000000E+00 0. -1.
        -13    1    3    3    0    0  0.11935716729E+03 -0.10015826962E+03  0.29860714032E+03  0.33681454334E+03  0.00000000000E+00 0.  1.
         14    1    3    3    0    0  0.15204424354E+03 -0.13521613572E+03  0.65096422467E+03  0.68202293008E+03  0.00000000000E+00 0. -1.
          5    1    4    4  502    0 -0.54059170837E+03  0.37213129662E+03  0.23979739870E+03  0.69874600500E+03  0.47000000000E+01 0.  1.
         -5    1    4    4    0  502 -0.16944392797E+03  0.11468360416E+03  0.15416580627E+03  0.25622794464E+03  0.47000000000E+01 0.  1.
          1    1    1    2  503    0 -0.45124699988E+02  0.62904433877E+02 -0.45561434645E+03  0.46214460837E+03  0.00000000000E+00 0. -1.
         -4    1    1    2    0  501 -0.11379510986E+02 -0.13048056983E+02  0.98355223560E+02  0.99867387384E+02  0.00000000000E+00 0.  1.
<mgrwt>
<rscale>  0 0.36608836E+02</rscale>
<asrwt>0</asrwt>
<pdfrwt beam="2">  1        2 0.13974417E+00 0.77409777E+02</pdfrwt>
<pdfrwt beam="1">  1       -3 0.33072013E+00 0.17313147E+02</pdfrwt>
<totfact> 0.75985846E-01</totfact>
</mgrwt>
</event>
<event>
13    1  0.1595792E-008  0.1046536E+03  0.7546771E-02  0.1563922E+00
          2   -1    0    0  503    0  0.00000000000E+00  0.00000000000E+00  0.19626195413E+04  0.19626195413E+04  0.00000000000E+00 0. -1.
          2   -1    0    0  502    0 -0.00000000000E+00 -0.00000000000E+00 -0.25127203936E+04  0.25127203936E+04  0.00000000000E+00 0. -1.
         24    2    1    2    0    0 -0.50215063221E+03 -0.67133123988E+03 -0.14359122098E+04  0.16647267458E+04  0.81427100600E+02 0.  0.
         25    2    1    2    0    0 -0.43586405462E+03  0.22519631845E+03 -0.75006797867E+02  0.51180334240E+03  0.12500314241E+03 0.  0.
         24    2    1    2    0    0  0.87606238276E+03  0.35102181375E+03  0.10051501409E+04  0.13821989468E+04  0.97188015726E+02 0.  0.
        -11    1    5    5    0    0  0.59372807933E+03  0.18827143264E+03  0.65642453603E+03  0.90490460052E+03  0.00000000000E+00 0.  1.
         12    1    5    5    0    0  0.28233430343E+03  0.16275038111E+03  0.34872560490E+03  0.47729434625E+03  0.00000000000E+00 0. -1.
        -11    1    3    3    0    0 -0.13325992575E+03 -0.24118723729E+03 -0.45858957382E+03  0.53500830691E+03  0.00000000000E+00 0.  1.
         12    1    3    3    0    0 -0.36889070646E+03 -0.43014400259E+03 -0.97732263600E+03  0.11297184389E+04  0.00000000000E+00 0. -1.
          5    1    4    4  501    0 -0.42599452057E+02 -0.14837632575E+02 -0.29710371407E+01  0.45450915477E+02  0.47000000000E+01 0.  1.
         -5    1    4    4    0  501 -0.39326460256E+03  0.24003395103E+03 -0.72035760726E+02  0.46635242693E+03  0.47000000000E+01 0.  1.
          1    1    1    2  502    0  0.25445789775E+00  0.10613819218E+02 -0.47413636043E+03  0.47425521208E+03  0.00000000000E+00 0. -1.
          1    1    1    2  503    0  0.61697846167E+02  0.84499288456E+02  0.42980437482E+03  0.44235568786E+03  0.00000000000E+00 0. -1.
<mgrwt>
<rscale>  0 0.33333068E+02</rscale>
<asrwt>0</asrwt>
<pdfrwt beam="1">  1        2 0.28862052E+00 0.10465359E+03</pdfrwt>
<pdfrwt beam="2">  1        2 0.36951770E+00 0.10616869E+02</pdfrwt>
<totfact> 0.10742595E+01</totfact>
</mgrwt>
</event>
<event>
13    1  0.1595792E-008  0.5023727E+03  0.7546771E-02  0.1262896E+00
          4   -1    0    0  503    0 -0.00000000000E+00  0.00000000000E+00  0.23287391907E+04  0.23287391907E+04  0.00000000000E+00 0. -1.
          2   -1    0    0  502    0  0.00000000000E+00 -0.00000000000E+00 -0.23389647758E+04  0.23389647758E+04  0.00000000000E+00 0. -1.
         24    2    1    2    0    0  0.54319403800E+03 -0.18769384877E+02  0.29820448767E+03  0.62454509690E+03  0.75621484164E+02 0.  0.
         25    2    1    2    0    0 -0.69614734014E+03 -0.92088562606E+00 -0.27392358865E+02  0.70781190242E+03  0.12500152263E+03 0.  0.
         24    2    1    2    0    0  0.14318424280E+03  0.54470243467E+03  0.14383464917E+03  0.58644934591E+03  0.77665689327E+02 0.  0.
        -11    1    5    5    0    0 -0.27368691337E+01  0.84678686597E+02  0.35303182798E+02  0.91783904538E+02  0.00000000000E+00 0.  1.
         12    1    5    5    0    0  0.14592111193E+03  0.46002374807E+03  0.10853146638E+03  0.49466544137E+03  0.00000000000E+00 0. -1.
        -13    1    3    3    0    0  0.62943097426E+02 -0.27644053953E+01  0.88234428465E+01  0.63618618300E+02  0.00000000000E+00 0.  1.
         14    1    3    3    0    0  0.48025094058E+03 -0.16004979482E+02  0.28938104483E+03  0.56092647860E+03  0.00000000000E+00 0. -1.
          5    1    4    4  501    0 -0.13315519832E+03 -0.46967542245E+02 -0.21420557122E+02  0.14288872290E+03  0.47000000000E+01 0. -1.
         -5    1    4    4    0  501 -0.56299214182E+03  0.46046656619E+02 -0.59718017427E+01  0.56492317952E+03  0.47000000000E+01 0. -1.
          1    1    1    2  502    0  0.10677693815E+02 -0.50148679839E+03 -0.15471205698E+04  0.16264024962E+04  0.00000000000E+00 0. -1.
          3    1    1    2  503    0 -0.90863446853E+00 -0.23525365777E+02  0.11222482067E+04  0.11224951251E+04  0.00000000000E+00 0. -1.
<mgrwt>
<rscale>  0 0.10875345E+03</rscale>
<asrwt>0</asrwt>
<pdfrwt beam="2">  1        2 0.34396541E+00 0.50237269E+03</pdfrwt>
<pdfrwt beam="1">  1        4 0.34246165E+00 0.23542907E+02</pdfrwt>
<totfact> 0.69344693E-02</totfact>
</mgrwt>
</event>
<event>
13    1  0.1595792E-008  0.4654289E+02  0.7546771E-02  0.1552815E+00
         -1   -1    0    0    0  501 -0.00000000000E+00  0.00000000000E+00  0.15704315931E+03  0.15704315931E+03  0.00000000000E+00 0.  1.
          2   -1    0    0  503    0  0.00000000000E+00 -0.00000000000E+00 -0.11804902053E+04  0.11804902053E+04  0.00000000000E+00 0. -1.
         24    2    1    2    0    0  0.22604881862E+02  0.85931303078E+02 -0.19588792329E+03  0.22907559968E+03  0.78793288698E+02 0.  0.
         25    2    1    2    0    0  0.27331484003E+02 -0.59581434424E+02 -0.16736844761E+03  0.21893829852E+03  0.12499929582E+03 0.  0.
         24    2    1    2    0    0 -0.44309415205E+02 -0.23622423675E+01 -0.25229630195E+03  0.26437336914E+03  0.65352504663E+02 0.  0.
        -11    1    3    3    0    0  0.73664161431E+01  0.46297903614E+01  0.62203594326E+01  0.10695415703E+02  0.00000000000E+00 0.  1.
         12    1    3    3    0    0  0.15238465719E+02  0.81301512716E+02 -0.20210828273E+03  0.21838018398E+03  0.00000000000E+00 0. -1.
        -13    1    5    5    0    0  0.22470790104E+01  0.49418799645E+01  0.19712051123E+01  0.57755684791E+01  0.00000000000E+00 0.  1.
         14    1    5    5    0    0 -0.46556494215E+02 -0.73041223320E+01 -0.25426750707E+03  0.25859780066E+03  0.00000000000E+00 0. -1.
          5    1    4    4  502    0  0.27556776336E+02 -0.59559357723E+00 -0.15624683180E+03  0.15872899263E+03  0.47000000000E+01 0. -1.
         -5    1    4    4    0  502 -0.22529233358E+00 -0.58985840846E+02 -0.11121615808E+02  0.60209305885E+02  0.47000000000E+01 0. -1.
          1    1    1    2  503    0  0.21346659176E+02  0.14162614969E+02 -0.51116042715E+03  0.51180195565E+03  0.00000000000E+00 0. -1.
         -2    1    1    2    0  501 -0.26973609836E+02 -0.38150241256E+02  0.10326605400E+03  0.11334414164E+03  0.00000000000E+00 0.  1.
<mgrwt>
<rscale>  0 0.34529920E+02</rscale>
<asrwt>0</asrwt>
<pdfrwt beam="2">  1        2 0.17360150E+00 0.25617563E+02</pdfrwt>
<pdfrwt beam="1">  1       -1 0.23094583E-01 0.46542889E+02</pdfrwt>
<totfact> 0.43855364E+02</totfact>
</mgrwt>
</event>
<event>
13    1  0.1595792E-008  0.1131377E+03  0.7546771E-02  0.1428373E+00
          2   -1    0    0  502    0  0.00000000000E+00  0.00000000000E+00  0.23317349104E+04  0.23317349104E+04  0.00000000000E+00 0. -1.
          2   -1    0    0  503    0 -0.00000000000E+00 -0.00000000000E+00 -0.72089399505E+03  0.72089399505E+03  0.00000000000E+00 0. -1.
         24    2    1    2    0    0  0.57164330815E+02  0.23862990707E+03 -0.10317026075E+03  0.27814954858E+03  0.80691235006E+02 0.  0.
         25    2    1    2    0    0  0.77982007963E+01 -0.40099516828E+03  0.38106083524E+03  0.56718093935E+03  0.12501568262E+03 0.  0.
         24    2    1    2    0    0 -0.19064058504E+03  0.21936931813E+03  0.67254003665E+03  0.74091299603E+03  0.11034145365E+03 0.  0.
        -11    1    5    5    0    0 -0.40035330558E+02  0.11437506348E+03  0.34163753297E+03  0.36249232650E+03  0.00000000000E+00 0.  1.
         12    1    5    5    0    0 -0.15060525449E+03  0.10499425465E+03  0.33090250368E+03  0.37842066954E+03  0.00000000000E+00 0. -1.
        -13    1    3    3    0    0 -0.48312356161E+01  0.11106291397E+03 -0.17740190088E+02  0.11257453549E+03  0.00000000000E+00 0.  1.
         14    1    3    3    0    0  0.61995566431E+02  0.12756699310E+03 -0.85430070662E+02  0.16557501309E+03  0.00000000000E+00 0. -1.
          5    1    4    4  501    0 -0.41526969140E+02 -0.22295868751E+03  0.26555091254E+03  0.34924839678E+03  0.47000000000E+01 0. -1.
         -5    1    4    4    0  501  0.49325169936E+02 -0.17803648076E+03  0.11550992270E+03  0.21793254257E+03  0.47000000000E+01 0. -1.
          1    1    1    2  502    0  0.10286778650E+03 -0.46533439829E+02  0.10600062336E+04  0.10660020440E+04  0.00000000000E+00 0. -1.
          1    1    1    2  503    0  0.22810266934E+02 -0.10470617096E+02 -0.39959592944E+03  0.40038337743E+03  0.00000000000E+00 0. -1.
<mgrwt>
<rscale>  0 0.53287931E+02</rscale>
<asrwt>0</asrwt>
<pdfrwt beam="1">  1        2 0.34290219E+00 0.11313771E+03</pdfrwt>
<pdfrwt beam="2">  1        2 0.10601382E+00 0.25098647E+02</pdfrwt>
<totfact> 0.44490582E+01</totfact>
</mgrwt>
</event>
<event>
13    1  0.1595792E-008  0.1045221E+03  0.7546771E-02  0.1359333E+00
          2   -1    0    0  503    0  0.00000000000E+00  0.00000000000E+00  0.25348869918E+04  0.25348869918E+04  0.00000000000E+00 0. -1.
          2   -1    0    0  502    0 -0.00000000000E+00 -0.00000000000E+00 -0.46475594031E+03  0.46475594031E+03  0.00000000000E+00 0. -1.
         24    2    1    2    0    0  0.60487200174E+02  0.23089738896E+02  0.41375993178E+02  0.10830376394E+03  0.76327551027E+02 0.  0.
         25    2    1    2    0    0 -0.14428436744E+03  0.77048929580E+02  0.25748707589E+03  0.32966686360E+03  0.12500452178E+03 0.  0.
         24    2    1    2    0    0  0.38098505567E+02 -0.45147683270E+01  0.17146931895E+03  0.19009310834E+03  0.72538150233E+02 0.  0.
        -11    1    5    5    0    0 -0.19821369882E+02 -0.73540552779E+01  0.26126982211E+02  0.33609344422E+02  0.00000000000E+00 0.  1.
         12    1    5    5    0    0  0.57919875449E+02  0.28392869509E+01  0.14534233674E+03  0.15648376392E+03  0.00000000000E+00 0. -1.
        -11    1    3    3    0    0  0.28839244099E+02  0.29667675846E+02  0.58555242592E+02  0.71697903912E+02  0.00000000000E+00 0.  1.
         12    1    3    3    0    0  0.31647956075E+02 -0.65779369499E+01 -0.17179249414E+02  0.36605860032E+02  0.00000000000E+00 0. -1.
          5    1    4    4  501    0  0.11722521249E+02  0.70765748056E+01 -0.58843502877E+01  0.15627251637E+02  0.47000000000E+01 0. -1.
         -5    1    4    4    0  501 -0.15600688869E+03  0.69972354775E+02  0.26337142618E+03  0.31403961196E+03  0.47000000000E+01 0. -1.
          1    1    1    2  502    0 -0.61985497676E+00 -0.10460191359E+03 -0.37851506758E+03  0.39270294235E+03  0.00000000000E+00 0. -1.
          1    1    1    2  503    0  0.46318516676E+02  0.89780134383E+01  0.19783137311E+04  0.19788762539E+04  0.00000000000E+00 0. -1.
<mgrwt>
<rscale>  0 0.70224057E+02</rscale>
<asrwt>0</asrwt>
<pdfrwt beam="1">  1        2 0.37277749E+00 0.47180607E+02</pdfrwt>
<pdfrwt beam="2">  1        2 0.68346463E-01 0.10452214E+03</pdfrwt>
<totfact> 0.62100189E+01</totfact>
</mgrwt>
</event>
<event>
13    1  0.1595792E-008  0.9587294E+02  0.7546771E-02  0.1360567E+00
          2   -1    0    0  503    0  0.00000000000E+00  0.00000000000E+00  0.45480088473E+04  0.45480088473E+04  0.00000000000E+00 0. -1.
         -3   -1    0    0    0  501 -0.00000000000E+00 -0.00000000000E+00 -0.24804044126E+03  0.24804044126E+03  0.00000000000E+00 0.  1.
         24    2    1    2    0    0 -0.44746183054E+02 -0.50834653809E+02  0.38514476026E+02  0.11246804177E+03  0.81112962162E+02 0.  0.
         25    2    1    2    0    0  0.73881127792E+02 -0.72918141989E+01  0.43042576068E+01  0.14545583311E+03  0.12500912428E+03 0.  0.
         24    2    1    2    0    0 -0.12837420349E+02 -0.13250659071E+02  0.12733004666E+04  0.12761651236E+04  0.83444384597E+02 0.  0.
        -11    1    3    3    0    0 -0.51339352596E+02 -0.45656891653E+02 -0.43017379747E+01  0.68838839545E+02  0.00000000000E+00 0.  1.
         12    1    3    3    0    0  0.65931695420E+01 -0.51777621560E+01  0.42816214001E+02  0.43629202227E+02  0.00000000000E+00 0. -1.
        -11    1    5    5    0    0 -0.21958073442E+02  0.28891423976E+02  0.35426422557E+03  0.35611797608E+03  0.00000000000E+00 0.  1.
         12    1    5    5    0    0  0.91206530934E+01 -0.42142083047E+02  0.91903624098E+03  0.92004714755E+03  0.00000000000E+00 0. -1.
          5    1    4    4  502    0  0.88676951040E+01  0.28067831351E+02  0.50101129880E+02  0.58297962129E+02  0.47000000000E+01 0. -1.
         -5    1    4    4    0  502  0.65013432688E+02 -0.35359645550E+02 -0.45796872273E+02  0.87157870977E+02  0.47000000000E+01 0. -1.
          1    1    1    2  503    0 -0.62780875367E+02  0.92131105960E+02  0.31172156049E+04  0.31192086667E+04  0.00000000000E+00 0. -1.
         -4    1    1    2    0  501  0.46483350978E+02 -0.20753978881E+02 -0.13336639908E+03  0.14275162332E+03  0.00000000000E+00 0.  1.
<mgrwt>
<rscale>  0 0.69860691E+02</rscale>
<asrwt>0</asrwt>
<pdfrwt beam="1">  1        2 0.66882478E+00 0.95872941E+02</pdfrwt>
<pdfrwt beam="2">  1       -3 0.36476538E-01 0.50906086E+02</pdfrwt>
<totfact> 0.12380447E+00</totfact>
</mgrwt>
</event>
<event>
13    1  0.1595792E-008  0.4572625E+03  0.7546771E-02  0.1130666E+00
          2   -1    0    0  502    0  0.00000000000E+00  0.00000000000E+00  0.27036157719E+04  0.27036157719E+04  0.00000000000E+00 0. -1.
          2   -1    0    0  503    0 -0.00000000000E+00 -0.00000000000E+00 -0.11786815955E+04  0.11786815955E+04  0.00000000000E+00 0. -1.
         24    2    1    2    0    0  0.26023690050E+03 -0.28574589544E+03  0.18560579453E+03  0.43659008916E+03  0.82385883757E+02 0.  0.
         25    2    1    2    0    0  0.17692727497E+03  0.88475264970E+02  0.20537499356E+03  0.31134495392E+03  0.12500263681E+03 0.  0.
         24    2    1    2    0    0  0.10408240047E+03 -0.30338103322E+02 -0.25710421569E+02  0.13715835634E+03  0.79986513449E+02 0.  0.
        -11    1    5    5    0    0  0.19810876277E+02  0.25841563209E+02 -0.13089315586E+02  0.35093979405E+02  0.00000000000E+00 0.  1.
         12    1    5    5    0    0  0.84271524197E+02 -0.56179666531E+02 -0.12621105983E+02  0.10206437693E+03  0.00000000000E+00 0. -1.
        -11    1    3    3    0    0  0.12012410958E+03 -0.84592081718E+02  0.43440725168E+02  0.15320808920E+03  0.00000000000E+00 0.  1.
         12    1    3    3    0    0  0.14011279092E+03 -0.20115381372E+03  0.14216506936E+03  0.28338199996E+03  0.00000000000E+00 0. -1.
          5    1    4    4  501    0  0.83852726697E+02 -0.14249207417E+02  0.36136734899E+02  0.92532552627E+02  0.47000000000E+01 0. -1.
         -5    1    4    4    0  501  0.93074548277E+02  0.10272447239E+03  0.16923825866E+03  0.21881240129E+03  0.47000000000E+01 0. -1.
          1    1    1    2  502    0 -0.93407972660E+02  0.58273456424E+02  0.20144533673E+04  0.20174595941E+04  0.00000000000E+00 0. -1.
          1    1    1    2  503    0 -0.44783860329E+03  0.16933527737E+03 -0.85478955734E+03  0.97974437385E+03  0.00000000000E+00 0. -1.
<mgrwt>
<rscale>  0 0.22437064E+03</rscale>
<asrwt>0</asrwt>
<pdfrwt beam="1">  1        2 0.39759055E+00 0.11009471E+03</pdfrwt>
<pdfrwt beam="2">  1        2 0.17333553E+00 0.45726252E+03</pdfrwt>
<totfact> 0.13633219E+01</totfact>
</mgrwt>
</event>
<event>
13    1  0.1595792E-008  0.2345552E+03  0.7546771E-02  0.1251471E+00
          4   -1    0    0  503    0 -0.00000000000E+00  0.00000000000E+00  0.42228528002E+03  0.42228528002E+03  0.00000000000E+00 0. -1.
          2   -1    0    0  502    0  0.00000000000E+00 -0.00000000000E+00 -0.30653397029E+04  0.30653397029E+04  0.00000000000E+00 0. -1.
         24    2    1    2    0    0 -0.38371530557E+02 -0.18753791931E+03 -0.22989728938E+02  0.20952705436E+03  0.82037877445E+02 0.  0.
         25    2    1    2    0    0 -0.20877997291E+03  0.16794833086E+03 -0.61766830181E+03  0.68478673426E+03  0.12499208545E+03 0.  0.
         24    2    1    2    0    0  0.41899072997E+02  0.12444714311E+03 -0.38448489983E+03  0.41409196140E+03  0.80005565784E+02 0.  0.
        -13    1    5    5    0    0  0.53178607386E+02  0.13046040478E+03 -0.35641735099E+03  0.38325084421E+03  0.00000000000E+00 0.  1.
         14    1    5    5    0    0 -0.11279534389E+02 -0.60132616746E+01 -0.28067548837E+02  0.30841117193E+02  0.00000000000E+00 0. -1.
        -13    1    3    3    0    0 -0.43009856180E+02 -0.19022441310E+03 -0.97799019127E+01  0.19527114879E+03  0.00000000000E+00 0.  1.
         14    1    3    3    0    0  0.46383256226E+01  0.26864937943E+01 -0.13209827026E+02  0.14255905567E+02  0.00000000000E+00 0. -1.
          5    1    4    4  501    0  0.74577946384E+01  0.77614011646E+01 -0.81651162329E+00  0.11773476128E+02  0.47000000000E+01 0.  1.
         -5    1    4    4    0  501 -0.21623776755E+03  0.16018692970E+03 -0.61685179018E+03  0.67301325813E+03  0.47000000000E+01 0.  1.
          1    1    1    2  502    0  0.49519782806E+02  0.27090066252E+02 -0.18609684846E+04  0.18618243154E+04  0.00000000000E+00 0. -1.
          3    1    1    2  503    0  0.15573264767E+03 -0.13194762092E+03  0.24305699227E+03  0.31739491758E+03  0.00000000000E+00 0. -1.
<mgrwt>
<rscale>  0 0.11506327E+03</rscale>
<asrwt>0</asrwt>
<pdfrwt beam="2">  1        2 0.45078526E+00 0.56445377E+02</pdfrwt>
<pdfrwt beam="1">  1        4 0.62100775E-01 0.23455518E+03</pdfrwt>
<totfact> 0.38272324E+00</totfact>
</mgrwt>
</event>
<event>
13    1  0.1595792E-008  0.8423401E+02  0.7546771E-02  0.1398340E+00
         -1   -1    0    0    0  501 -0.00000000000E+00  0.00000000000E+00  0.74772921371E+03  0.74772921371E+03  0.00000000000E+00 0.  1.
          2   -1    0    0  503    0  0.00000000000E+00 -0.00000000000E+00 -0.10414812613E+04  0.10414812613E+04  0.00000000000E+00 0. -1.
         24    2    1    2    0    0  0.58763578927E+02 -0.69724939863E+02 -0.15984948733E+01  0.12158794749E+03  0.80413607940E+02 0.  0.
         25    2    1    2    0    0 -0.97844908250E+02  0.10235667780E+03 -0.92493284161E+02  0.21031419350E+03  0.12500614709E+03 0.  0.
         24    2    1    2    0    0 -0.18866875661E+02 -0.22896785428E+02 -0.29889611851E+03  0.31116534036E+03  0.81269659791E+02 0.  0.
        -11    1    5    5    0    0  0.13270897481E+02 -0.15216559106E+02 -0.25707149501E+03  0.25786316902E+03  0.00000000000E+00 0.  1.
         12    1    5    5    0    0 -0.32137773142E+02 -0.76802263213E+01 -0.41824623503E+02  0.53302171344E+02  0.00000000000E+00 0. -1.
        -11    1    3    3    0    0  0.10307374762E+02  0.95991693035E+01  0.21597196950E+02  0.25784199462E+02  0.00000000000E+00 0.  1.
         12    1    3    3    0    0  0.48456204165E+02 -0.79324109167E+02 -0.23195691823E+02  0.95803748028E+02  0.00000000000E+00 0. -1.
          5    1    4    4  502    0 -0.69892724453E+02  0.13023986927E+02 -0.92287950795E+02  0.11659233692E+03  0.47000000000E+01 0.  1.
         -5    1    4    4    0  502 -0.27952183797E+02  0.89332690876E+02 -0.20533336541E+00  0.93721856576E+02  0.47000000000E+01 0.  1.
          1    1    1    2  503    0  0.81043818227E+02  0.26020547471E+02 -0.51925695116E+03  0.52618718218E+03  0.00000000000E+00 0. -1.
         -2    1    1    2    0  501 -0.23095613242E+02 -0.35755499984E+02  0.61849280113E+03  0.61995581147E+03  0.00000000000E+00 0.  1.
<mgrwt>
<rscale>  0 0.59879075E+02</rscale>
<asrwt>0</asrwt>
<pdfrwt beam="2">  1        2 0.15315901E+00 0.84234010E+02</pdfrwt>
<pdfrwt beam="1">  1       -1 0.10996018E+00 0.42565986E+02</pdfrwt>
<totfact> 0.28702544E+01</totfact>
</mgrwt>
</event>
<event>
13    1  0.1595792E-008  0.1751588E+03  0.7546771E-02  0.1176926E+00
          2   -1    0    0  502    0  0.00000000000E+00  0.00000000000E+00  0.29517924535E+04  0.29517924535E+04  0.00000000000E+00 0. -1.
          2   -1    0    0  503    0 -0.00000000000E+00 -0.00000000000E+00 -0.13049511464E+04  0.13049511464E+04  0.00000000000E+00 0. -1.
         24    2    1    2    0    0  0.41284884180E+03  0.52283520327E+03 -0.43308228520E+02  0.67287236135E+03  0.84147466190E+02 0.  0.
         25    2    1    2    0    0 -0.40087710580E+02 -0.71302921871E+03  0.55460960155E+03  0.91281312882E+03  0.12497322409E+03 0.  0.
         24    2    1    2    0    0 -0.14084183085E+03  0.21172174590E+03  0.40204075721E+03  0.48564908071E+03  0.97753466079E+02 0.  0.
        -11    1    5    5    0    0 -0.49604580229E+02  0.14977987536E+03  0.19284053297E+03  0.24916279136E+03  0.00000000000E+00 0.  1.
         12    1    5    5    0    0 -0.91237250623E+02  0.61941870540E+02  0.20920022424E+03  0.23648628934E+03  0.00000000000E+00 0. -1.
        -11    1    3    3    0    0  0.37519406480E+03  0.42737465751E+03 -0.41942702631E+02  0.57024457424E+03  0.00000000000E+00 0.  1.
         12    1    3    3    0    0  0.37654776991E+02  0.95460545757E+02 -0.13655258887E+01  0.10262778711E+03  0.00000000000E+00 0. -1.
          5    1    4    4  501    0  0.43148565061E+02 -0.16587327571E+03  0.12548857165E+03  0.21247403106E+03  0.47000000000E+01 0. -1.
         -5    1    4    4    0  501 -0.83236275642E+02 -0.54715594301E+03  0.42912102989E+03  0.70033909776E+03  0.47000000000E+01 0. -1.
          1    1    1    2  502    0 -0.98168694705E+02 -0.13475370210E+03  0.14440119713E+04  0.14536045632E+04  0.00000000000E+00 0. -1.
          1    1    1    2  503    0 -0.13375060566E+03  0.11322597165E+03 -0.71051279440E+03  0.73180446581E+03  0.00000000000E+00 0. -1.
<mgrwt>
<rscale>  0 0.17088746E+03</rscale>
<asrwt>0</asrwt>
<pdfrwt beam="1">  1        2 0.43408712E+00 0.16672028E+03</pdfrwt>
<pdfrwt beam="2">  1        2 0.19190458E+00 0.17515879E+03</pdfrwt>
<totfact> 0.85887415E+00</totfact>
</mgrwt>
</event>
<event>
13    1  0.1595792E-008  0.7731590E+02  0.7546771E-02  0.1501598E+00
          2   -1    0    0  503    0  0.00000000000E+00  0.00000000000E+00  0.17747723411E+04  0.17747723411E+04  0.00000000000E+00 0. -1.
         -3   -1    0    0    0  501 -0.00000000000E+00 -0.00000000000E+00 -0.10678395640E+04  0.10678395640E+04  0.00000000000E+00 0.  1.
         24    2    1    2    0    0 -0.10154214351E+03  0.27623380381E+02 -0.15408387924E+03  0.20296885810E+03  0.79879017670E+02 0.  0.
         25    2    1    2    0    0  0.97410659001E+02 -0.55203705206E+02  0.31963699318E+02  0.17082211250E+03  0.12498892146E+03 0.  0.
         24    2    1    2    0    0  0.73361124692E+02 -0.15955882433E+02  0.88975972810E+03  0.89642988519E+03  0.79232067387E+02 0.  0.
        -11    1    5    5    0    0  0.87929767139E+02 -0.16008697229E+02  0.63560691061E+03  0.64185985009E+03  0.00000000000E+00 0.  1.
         12    1    5    5    0    0 -0.14568642448E+02  0.52814796227E-01  0.25415281749E+03  0.25457003510E+03  0.00000000000E+00 0. -1.
        -13    1    3    3    0    0 -0.62573408766E+02  0.45777648807E+02 -0.13554457132E+03  0.15615170646E+03  0.00000000000E+00 0.  1.
         14    1    3    3    0    0 -0.38968734749E+02 -0.18154268425E+02 -0.18539307920E+02  0.46817151645E+02  0.00000000000E+00 0. -1.
          5    1    4    4  502    0  0.10713519364E+03 -0.75769518083E+02  0.50926748361E+02  0.14083534104E+03  0.47000000000E+01 0. -1.
         -5    1    4    4    0  502 -0.97245346413E+01  0.20565812877E+02 -0.18963049043E+02  0.29986771455E+02  0.47000000000E+01 0. -1.
          1    1    1    2  503    0 -0.73982485184E+02  0.22414507976E+02  0.75372136636E+03  0.75767520508E+03  0.00000000000E+00 0. -1.
         -4    1    1    2    0  501  0.47528450057E+01  0.21121699281E+02 -0.81442813748E+03  0.81471584423E+03  0.00000000000E+00 0.  1.
<mgrwt>
<rscale>  0 0.40913043E+02</rscale>
<asrwt>0</asrwt>
<pdfrwt beam="1">  1        2 0.26099593E+00 0.77315900E+02</pdfrwt>
<pdfrwt beam="2">  1       -3 0.15703523E+00 0.21649843E+02</pdfrwt>
<totfact> 0.22755706E+00</totfact>
</mgrwt>
</event>
<event>
13    1  0.1595792E-008  0.7306588E+02  0.7546771E-02  0.1358758E+00
         -1   -1    0    0    0  501 -0.00000000000E+00  0.00000000000E+00  0.59645833858E+03  0.59645833858E+03  0.00000000000E+00 0.  1.
          2   -1    0    0  503    0  0.00000000000E+00 -0.00000000000E+00 -0.88184614174E+03  0.88184614174E+03  0.00000000000E+00 0. -1.
         24    2    1    2    0    0 -0.40173613819E+02 -0.19076812934E+03  0.85451932045E+02  0.22743361437E+03  0.80110035807E+02 0.  0.
         25    2    1    2    0    0  0.73767946551E+02  0.24198582359E+03 -0.89386708272E+01  0.28231956182E+03  0.12500234555E+03 0.  0.
         24    2    1    2    0    0  0.29131572861E+02 -0.35952508983E+02 -0.40618113746E+02  0.10242831763E+03  0.81856567540E+02 0.  0.
        -11    1    5    5    0    0  0.14645036279E+01 -0.49787082295E+02  0.19041515578E+01  0.49845001028E+02  0.00000000000E+00 0.  1.
         12    1    5    5    0    0  0.27667069233E+02  0.13834573312E+02 -0.42522265304E+02  0.52583316606E+02  0.00000000000E+00 0. -1.
        -13    1    3    3    0    0  0.22790946473E+02 -0.81150788521E+02  0.31409304211E+02  0.89952332431E+02  0.00000000000E+00 0.  1.
         14    1    3    3    0    0 -0.62964560292E+02 -0.10961734081E+03  0.54042627834E+02  0.13748128194E+03  0.00000000000E+00 0. -1.
          5    1    4    4  502    0  0.64054856225E+01 -0.10085481855E+02 -0.16918319173E+02  0.21238331243E+02  0.47000000000E+01 0. -1.
         -5    1    4    4    0  502  0.67362460928E+02  0.25207130545E+03  0.79796483461E+01  0.26108123058E+03  0.47000000000E+01 0. -1.
          1    1    1    2  503    0 -0.39886610286E+02  0.54850981059E+02 -0.58672320141E+03  0.59062990686E+03  0.00000000000E+00 0. -1.
         -2    1    1    2    0  501 -0.22839295307E+02 -0.70116166334E+02  0.26544025078E+03  0.27549307963E+03  0.00000000000E+00 0.  1.
<mgrwt>
<rscale>  0 0.70394162E+02</rscale>
<asrwt>0</asrwt>
<pdfrwt beam="2">  1        2 0.12968325E+00 0.67820143E+02</pdfrwt>
<pdfrwt beam="1">  1       -1 0.87714463E-01 0.73065875E+02</pdfrwt>
<totfact> 0.56903036E+01</totfact>
</mgrwt>
</event>
<event>
13    1  0.1595792E-008  0.8677529E+02  0.7546771E-02  0.1321665E+00
          2   -1    0    0  503    0  0.00000000000E+00  0.00000000000E+00  0.80808355493E+03  0.80808355493E+03  0.00000000000E+00 0. -1.
          2   -1    0    0  502    0 -0.00000000000E+00 -0.00000000000E+00 -0.75039234763E+03  0.75039234763E+03  0.00000000000E+00 0. -1.
         24    2    1    2    0    0  0.37203074346E+02 -0.12459254808E+02 -0.83479959227E+02  0.12192493570E+03  0.79733835858E+02 0.  0.
         25    2    1    2    0    0 -0.31197657967E+02  0.27086530807E+00 -0.47688892083E+02  0.13739040392E+03  0.12501410092E+03 0.  0.
         24    2    1    2    0    0 -0.73378698742E+02 -0.29898590661E+02  0.22750077709E+03  0.25384134935E+03  0.80002924394E+02 0.  0.
        -11    1    3    3    0    0  0.16517499612E+02  0.30844721483E+02 -0.14457670697E+02  0.37858273584E+02  0.00000000000E+00 0.  1.
         12    1    3    3    0    0  0.20685574734E+02 -0.43303976291E+02 -0.69022288529E+02  0.84066662111E+02  0.00000000000E+00 0. -1.
        -11    1    5    5    0    0 -0.82227665088E+02 -0.63936289397E+01  0.20133170695E+03  0.21757004302E+03  0.00000000000E+00 0.  1.
         12    1    5    5    0    0  0.88489663452E+01 -0.23504961721E+02  0.26169070137E+02  0.36271306328E+02  0.00000000000E+00 0. -1.
          5    1    4    4  501    0  0.48411002031E+02  0.27214241049E+01 -0.13208632218E+02  0.50473648886E+02  0.47000000000E+01 0. -1.
         -5    1    4    4    0  501 -0.79608659997E+02 -0.24505587968E+01 -0.34480259866E+02  0.86916755033E+02  0.47000000000E+01 0. -1.
          1    1    1    2  502    0 -0.12588032972E+02  0.77729472302E+02 -0.53527099653E+03  0.54103176355E+03  0.00000000000E+00 0. -1.
          1    1    1    2  503    0  0.79961315335E+02 -0.35642492141E+02  0.49663027805E+03  0.50428745005E+03  0.00000000000E+00 0. -1.
<mgrwt>
<rscale>  0 0.82661202E+02</rscale>
<asrwt>0</asrwt>
<pdfrwt beam="1">  1        2 0.11883582E+00 0.86775286E+02</pdfrwt>
<pdfrwt beam="2">  1        2 0.11035181E+00 0.78742171E+02</pdfrwt>
<totfact> 0.25471508E+02</totfact>
</mgrwt>
</event>
<event>
13    1  0.1595792E-008  0.1208011E+03  0.7546771E-02  0.1315111E+00
          2   -1    0    0  502    0  0.00000000000E+00  0.00000000000E+00  0.10679832559E+04  0.10679832559E+04  0.00000000000E+00 0. -1.
          2   -1    0    0  503    0 -0.00000000000E+00 -0.00000000000E+00 -0.10547687406E+04  0.10547687406E+04  0.00000000000E+00 0. -1.
         24    2    1    2    0    0 -0.62295015052E+02  0.70916824626E+02  0.20615686486E+01  0.12397664739E+03  0.80349823386E+02 0.  0.
         25    2    1    2    0    0  0.45443292702E+02  0.15371527690E+02  0.11598229504E+03  0.17713902857E+03  0.12499986386E+03 0.  0.
         24    2    1    2    0    0  0.20677660007E+02 -0.94672003649E+01  0.11446876077E+03  0.14140149636E+03  0.79837913772E+02 0.  0.
        -11    1    3    3    0    0 -0.38015459281E+02  0.59206140809E+02  0.37279842458E+02  0.79626182299E+02  0.00000000000E+00 0.  1.
         12    1    3    3    0    0 -0.24279555770E+02  0.11710683817E+02 -0.35218273810E+02  0.44350465093E+02  0.00000000000E+00 0. -1.
        -11    1    5    5    0    0 -0.27748358125E+02  0.11566151409E+02  0.37438965787E+02  0.48014824755E+02  0.00000000000E+00 0.  1.
         12    1    5    5    0    0  0.48426018132E+02 -0.21033351774E+02  0.77029794983E+02  0.93386671609E+02  0.00000000000E+00 0. -1.
          5    1    4    4  501    0  0.41021608522E+02 -0.44171802926E+02  0.19412741748E+02  0.63504842978E+02  0.47000000000E+01 0.  1.
         -5    1    4    4    0  501  0.44216841795E+01  0.59543330616E+02  0.96569553295E+02  0.11363418559E+03  0.47000000000E+01 0.  1.
          1    1    1    2  502    0  0.49144881514E+02  0.34389858704E+02  0.72523091770E+03  0.72770719781E+03  0.00000000000E+00 0. -1.
          1    1    1    2  503    0 -0.52970819171E+02 -0.11121101066E+03 -0.94452902678E+03  0.95252762638E+03  0.00000000000E+00 0. -1.
<mgrwt>
<rscale>  0 0.85123038E+02</rscale>
<asrwt>0</asrwt>
<pdfrwt beam="1">  1        2 0.15705636E+00 0.59982345E+02</pdfrwt>
<pdfrwt beam="2">  1        2 0.15511305E+00 0.12080107E+03</pdfrwt>
<totfact> 0.11642880E+02</totfact>
</mgrwt>
</event>
<event>
13    1  0.1595792E-008  0.5236320E+02  0.7546771E-02  0.1451221E+00
          2   -1    0    0  502    0  0.00000000000E+00  0.00000000000E+00  0.22734256492E+04  0.22734256492E+04  0.00000000000E+00 0. -1.
          2   -1    0    0  503    0 -0.00000000000E+00 -0.00000000000E+00 -0.36810666672E+04  0.36810666672E+04  0.00000000000E+00 0. -1.
         24    2    1    2    0    0 -0.34614003129E+03  0.16937781531E+03 -0.43711219035E+03  0.59236726419E+03  0.10644314518E+03 0.  0.
         25    2    1    2    0    0  0.26166613232E+03  0.19601713594E+03 -0.16851751538E+03  0.38847867572E+03  0.12500258444E+03 0.  0.
         24    2    1    2    0    0  0.93931629715E+02 -0.30930773713E+03  0.39163631929E+03  0.51440427264E+03  0.82087281646E+02 0.  0.
        -11    1    3    3    0    0 -0.33691756591E+03  0.13314183945E+03 -0.40046740216E+03  0.54001327375E+03  0.00000000000E+00 0.  1.
         12    1    3    3    0    0 -0.92224653732E+01  0.36235975855E+02 -0.36644788191E+02  0.52353990443E+02  0.00000000000E+00 0. -1.
        -11    1    5    5    0    0  0.73933327352E+02 -0.17684600572E+03  0.28362651606E+03  0.34232243170E+03  0.00000000000E+00 0.  1.
         12    1    5    5    0    0  0.19998302362E+02 -0.13246173142E+03  0.10800980323E+03  0.17208184094E+03  0.00000000000E+00 0. -1.
          5    1    4    4  501    0  0.26752599361E+03  0.16144185803E+03 -0.16367193704E+03  0.35276652867E+03  0.47000000000E+01 0.  1.
         -5    1    4    4    0  501 -0.58598612948E+01  0.34575277913E+02 -0.48455783466E+01  0.35712147046E+02  0.47000000000E+01 0.  1.
          1    1    1    2  502    0  0.35352029890E+02 -0.28983811428E+02  0.16322346087E+04  0.16328746569E+04  0.00000000000E+00 0. -1.
          1    1    1    2  503    0 -0.44809760633E+02 -0.27103402684E+02 -0.28258822402E+04  0.28263674469E+04  0.00000000000E+00 0. -1.
<mgrwt>
<rscale>  0 0.48926111E+02</rscale>
<asrwt>0</asrwt>
<pdfrwt beam="1">  1        2 0.33432730E+00 0.45714629E+02</pdfrwt>
<pdfrwt beam="2">  1        2 0.54133333E+00 0.52363201E+02</pdfrwt>
<totfact> 0.15587027E+00</totfact>
</mgrwt>
</event>
<event>
13    1  0.1595792E-008  0.9068627E+02  0.7546771E-02  0.1332035E+00
          2   -1    0    0  502    0  0.00000000000E+00  0.00000000000E+00  0.38172155285E+03  0.38172155285E+03  0.00000000000E+00 0. -1.
          2   -1    0    0  503    0 -0.00000000000E+00 -0.00000000000E+00 -0.20010480049E+04  0.20010480049E+04  0.00000000000E+00 0. -1.
         24    2    1    2    0    0 -0.11590927638E+03  0.25551992599E+02 -0.60195180115E+03  0.61876558401E+03  0.80230993807E+02 0.  0.
         25    2    1    2    0    0  0.11286467871E+03 -0.12608797507E+03 -0.42594064600E+03  0.47506468777E+03  0.12499764195E+03 0.  0.
         24    2    1    2    0    0 -0.27666365010E+01 -0.43163938006E+02  0.90720095627E+02  0.12280188385E+03  0.70564772413E+02 0.  0.
        -13    1    3    3    0    0 -0.12218066870E+03  0.90171180272E+01 -0.55989457054E+03  0.57314165294E+03  0.00000000000E+00 0.  1.
         14    1    3    3    0    0  0.62713923251E+01  0.16534874572E+02 -0.42057230612E+02  0.45623931062E+02  0.00000000000E+00 0. -1.
        -13    1    5    5    0    0 -0.35884370710E+02 -0.14515251549E+02  0.37664135525E+02  0.54008959384E+02  0.00000000000E+00 0.  1.
         14    1    5    5    0    0  0.33117734209E+02 -0.28648686457E+02  0.53055960102E+02  0.68792924471E+02  0.00000000000E+00 0. -1.
          5    1    4    4  501    0  0.87095773057E+02 -0.15505858318E+02 -0.12358184190E+03  0.15205481569E+03  0.47000000000E+01 0. -1.
         -5    1    4    4    0  501  0.25768905649E+02 -0.11058211676E+03 -0.30235880410E+03  0.32300987209E+03  0.47000000000E+01 0. -1.
          1    1    1    2  502    0  0.52283293875E+02  0.65445744660E+02  0.23241575699E+03  0.24705014149E+03  0.00000000000E+00 0. -1.
          1    1    1    2  503    0 -0.46472059704E+02  0.78254175822E+02 -0.91456985754E+03  0.91908726065E+03  0.00000000000E+00 0. -1.
<mgrwt>
<rscale>  0 0.78957995E+02</rscale>
<asrwt>0</asrwt>
<pdfrwt beam="1">  1        2 0.56135522E-01 0.68746517E+02</pdfrwt>
<pdfrwt beam="2">  1        2 0.29427177E+00 0.90686266E+02</pdfrwt>
<totfact> 0.12701304E+02</totfact>
</mgrwt>
</event>
<event>
13    1  0.1595792E-008  0.1868109E+03  0.7546771E-02  0.1285662E+00
          2   -1    0    0  502    0  0.00000000000E+00  0.00000000000E+00  0.24080173020E+04  0.24080173020E+04  0.00000000000E+00 0. -1.
          2   -1    0    0  503    0 -0.00000000000E+00 -0.00000000000E+00 -0.15147890196E+04  0.15147890196E+04  0.00000000000E+00 0. -1.
         24    2    1    2    0    0 -0.91330597111E+01  0.17908969845E+02  0.25447751164E+02  0.85850367025E+02  0.79489329462E+02 0.  0.
         25    2    1    2    0    0 -0.97822853030E+02  0.13266265604E+03  0.23344894152E+03  0.31190741612E+03  0.12497654599E+03 0.  0.
         24    2    1    2    0    0  0.91151885720E+01 -0.16288703685E+02  0.28786474495E+03  0.29973254551E+03  0.81394587816E+02 0.  0.
        -11    1    3    3    0    0 -0.42777006306E+02  0.52746422996E+01  0.24226100214E+01  0.43169006929E+02  0.00000000000E+00 0.  1.
         12    1    3    3    0    0  0.33643946595E+02  0.12634327545E+02  0.23025141143E+02  0.42681360096E+02  0.00000000000E+00 0. -1.
        -11    1    5    5    0    0 -0.86212556073E+01  0.29545557170E+02  0.15599773559E+03  0.15900490403E+03  0.00000000000E+00 0.  1.
         12    1    5    5    0    0  0.17736444179E+02 -0.45834260855E+02  0.13186700936E+03  0.14072764148E+03  0.00000000000E+00 0. -1.
          5    1    4    4  501    0 -0.70302604153E+02  0.45366057572E+02  0.19551032870E+03  0.21271321999E+03  0.47000000000E+01 0. -1.
         -5    1    4    4    0  501 -0.27520248878E+02  0.87296598467E+02  0.37938612820E+02  0.99194196125E+02  0.47000000000E+01 0. -1.
          1    1    1    2  502    0 -0.48073740626E+02 -0.16657010942E+02  0.17794254196E+04  0.17801526239E+04  0.00000000000E+00 0. -1.
          1    1    1    2  503    0  0.14591446480E+03 -0.11762591126E+03 -0.14329585748E+04  0.14451633691E+04  0.00000000000E+00 0. -1.
<mgrwt>
<rscale>  0 0.97491082E+02</rscale>
<asrwt>0</asrwt>
<pdfrwt beam="1">  1        2 0.35412019E+00 0.50877702E+02</pdfrwt>
<pdfrwt beam="2">  1        2 0.22276309E+00 0.18681093E+03</pdfrwt>
<totfact> 0.14826607E+01</totfact>
</mgrwt>
</event>
<event>
13    1  0.1595792E-008  0.6954027E+02  0.7546771E-02  0.1373748E+00
          2   -1    0    0  503    0  0.00000000000E+00  0.00000000000E+00  0.16176079054E+04  0.16176079054E+04  0.00000000000E+00 0. -1.
          2   -1    0    0  502    0 -0.00000000000E+00 -0.00000000000E+00 -0.39166256212E+04  0.39166256212E+04  0.00000000000E+00 0. -1.
         24    2    1    2    0    0  0.18056650212E+03 -0.23487823328E+02 -0.75400452543E+03  0.77985657475E+03  0.80607154061E+02 0.  0.
         25    2    1    2    0    0 -0.21140997235E+03  0.27716224202E+02 -0.18823688598E+03  0.31067224569E+03  0.12498701333E+03 0.  0.
         24    2    1    2    0    0  0.18549686226E+02  0.32767840892E+01 -0.29163593552E+02  0.86543972308E+02  0.79274937912E+02 0.  0.
        -11    1    3    3    0    0  0.99924596726E+01  0.24845815894E+01 -0.54023140315E+01  0.11627871382E+02  0.00000000000E+00 0.  1.
         12    1    3    3    0    0  0.17057404245E+03 -0.25972404917E+02 -0.74860221140E+03  0.76822870337E+03  0.00000000000E+00 0. -1.
        -13    1    5    5    0    0  0.43119423953E+02 -0.14926361609E+02 -0.32152666141E+02  0.55820022688E+02  0.00000000000E+00 0.  1.
         14    1    5    5    0    0 -0.24569737727E+02  0.18203145698E+02  0.29890725883E+01  0.30723949620E+02  0.00000000000E+00 0. -1.
          5    1    4    4  501    0  0.97494168508E+01 -0.85959350418E+01 -0.38982334253E+02  0.41360048501E+02  0.47000000000E+01 0.  1.
         -5    1    4    4    0  501 -0.22115938920E+03  0.36312159244E+02 -0.14925455173E+03  0.26931219719E+03  0.47000000000E+01 0.  1.
          1    1    1    2  502    0  0.10286786028E+02  0.62052038725E+02 -0.28412393018E+04  0.28419354397E+04  0.00000000000E+00 0. -1.
          1    1    1    2  503    0  0.20069979777E+01 -0.69557223688E+02  0.15136265909E+04  0.15152252942E+04  0.00000000000E+00 0. -1.
<mgrwt>
<rscale>  0 0.66136282E+02</rscale>
<asrwt>0</asrwt>
<pdfrwt beam="1">  1        2 0.23788352E+00 0.69540274E+02</pdfrwt>
<pdfrwt beam="2">  1        2 0.57597435E+00 0.62898915E+02</pdfrwt>
<totfact> 0.20802820E+00</totfact>
</mgrwt>
</event>
<event>
13    1  0.1595792E-008  0.1583037E+03  0.7546771E-02  0.1222863E+00
          2   -1    0    0  503    0  0.00000000000E+00  0.00000000000E+00  0.15471013850E+04  0.15471013850E+04  0.00000000000E+00 0. -1.
          2   -1    0    0  502    0 -0.00000000000E+00 -0.00000000000E+00 -0.33089248672E+04  0.33089248672E+04  0.00000000000E+00 0. -1.
         24    2    1    2    0    0  0.31199901594E+03 -0.67493590105E+02 -0.51009128444E+03  0.60658982783E+03  0.76546261263E+02 0.  0.
         25    2    1    2    0    0 -0.95590264957E+02 -0.25541601124E+02 -0.30044947543E+03  0.34012560730E+03  0.12500267722E+03 0.  0.
         24    2    1    2    0    0  0.93909877044E+01 -0.50635783502E+02  0.28944933610E+03  0.30448924977E+03  0.79250311250E+02 0.  0.
        -13    1    5    5    0    0  0.41524855909E+02 -0.18747177422E+02  0.10307201828E+03  0.11269255198E+03  0.00000000000E+00 0.  1.
         14    1    5    5    0    0 -0.32133868204E+02 -0.31888606080E+02  0.18637731783E+03  0.19179669779E+03  0.00000000000E+00 0. -1.
        -13    1    3    3    0    0  0.13461722110E+03  0.59140430052E+01 -0.23975409437E+03  0.27502508592E+03  0.00000000000E+00 0.  1.
         14    1    3    3    0    0  0.17738179484E+03 -0.73407633110E+02 -0.27033719007E+03  0.33156474191E+03  0.00000000000E+00 0. -1.
          5    1    4    4  501    0  0.14587390102E+02 -0.40692828110E+02 -0.51358484173E+02  0.67293997549E+02  0.47000000000E+01 0. -1.
         -5    1    4    4    0  501 -0.11017765506E+03  0.15151226985E+02 -0.24909099126E+03  0.27283160975E+03  0.47000000000E+01 0. -1.
          1    1    1    2  502    0 -0.15514217020E+03 -0.21519225059E+02 -0.24133963248E+04  0.24184734835E+04  0.00000000000E+00 0. -1.
          1    1    1    2  503    0 -0.70657568492E+02  0.16519019979E+03  0.11726642664E+04  0.11863480837E+04  0.00000000000E+00 0. -1.
<mgrwt>
<rscale>  0 0.13314472E+03</rscale>
<asrwt>0</asrwt>
<pdfrwt beam="1">  1        2 0.22751492E+00 0.11198423E+03</pdfrwt>
<pdfrwt beam="2">  1        2 0.48660659E+00 0.15830369E+03</pdfrwt>
<totfact> 0.42550570E+00</totfact>
</mgrwt>
</event>
<event>
13    1  0.1595792E-008  0.1068591E+03  0.7546771E-02  0.1385374E+00
          2   -1    0    0  503    0  0.00000000000E+00  0.00000000000E+00  0.44269929574E+03  0.44269929574E+03  0.00000000000E+00 0. -1.
          2   -1    0    0  502    0 -0.00000000000E+00 -0.00000000000E+00 -0.18300179327E+04  0.18300179327E+04  0.00000000000E+00 0. -1.
         24    2    1    2    0    0  0.24693186435E+03 -0.84400399765E+02 -0.67981201705E+03  0.73266336853E+03  0.80947266459E+02 0.  0.
         25    2    1    2    0    0 -0.20273418251E+03  0.16588375823E+03 -0.77211244441E+03  0.82486433424E+03  0.12499989237E+03 0.  0.
         24    2    1    2    0    0 -0.37883848796E+02  0.21089204240E+02  0.42275642427E+01  0.91987396325E+02  0.81017703300E+02 0.  0.
        -11    1    5    5    0    0 -0.41200139381E+02 -0.23125447675E+02  0.59215628705E+01  0.47616202306E+02  0.00000000000E+00 0.  1.
         12    1    5    5    0    0  0.33162905851E+01  0.44214651916E+02 -0.16939986278E+01  0.44371194018E+02  0.00000000000E+00 0. -1.
        -13    1    3    3    0    0  0.13359917171E+03 -0.13719357570E+02 -0.41297558441E+03  0.43426465752E+03  0.00000000000E+00 0.  1.
         14    1    3    3    0    0  0.11333269265E+03 -0.70681042195E+02 -0.26683643264E+03  0.29839871101E+03  0.00000000000E+00 0. -1.
          5    1    4    4  501    0 -0.11303865073E+03  0.14565133624E+02 -0.28848034467E+03  0.31021424683E+03  0.47000000000E+01 0.  1.
         -5    1    4    4    0  501 -0.89695531771E+02  0.15131862460E+03 -0.48363209975E+03  0.51465008741E+03  0.47000000000E+01 0.  1.
          1    1    1    2  502    0  0.31687385698E+02  0.19539392056E+02 -0.26811763314E+03  0.27068975499E+03  0.00000000000E+00 0. -1.
          1    1    1    2  503    0 -0.38001218751E+02 -0.12211195476E+03  0.32849589338E+03  0.35251237438E+03  0.00000000000E+00 0. -1.
<mgrwt>
<rscale>  0 0.63072057E+02</rscale>
<asrwt>0</asrwt>
<pdfrwt beam="1">  1        2 0.65102837E-01 0.10685909E+03</pdfrwt>
<pdfrwt beam="2">  1        2 0.26912029E+00 0.37227386E+02</pdfrwt>
<totfact> 0.14346983E+02</totfact>
</mgrwt>
</event>
<event>
13    1  0.1595792E-008  0.1787751E+03  0.7546771E-02  0.1417475E+00
          2   -1    0    0  503    0  0.00000000000E+00  0.00000000000E+00  0.25962704583E+04  0.25962704583E+04  0.00000000000E+00 0. -1.
         -1   -1    0    0    0  501 -0.00000000000E+00 -0.00000000000E+00 -0.46141033433E+03  0.46141033433E+03  0.00000000000E+00 0.  1.
         24    2    1    2    0    0  0.38354601063E+02  0.67916406611E+00  0.12199894636E+03  0.14993614466E+03  0.78266007162E+02 0.  0.
         25    2    1    2    0    0 -0.15784411059E+03  0.13664494972E+03 -0.11355482762E+02  0.24359460997E+03  0.12499112563E+03 0.  0.
         24    2    1    2    0    0 -0.71762279633E+02 -0.12407772748E+03  0.48494697785E+03  0.51220771817E+03  0.81474339446E+02 0.  0.
        -11    1    3    3    0    0 -0.22886405629E+02 -0.99093338467E+01  0.37737752334E+02  0.45234062509E+02  0.00000000000E+00 0.  1.
         12    1    3    3    0    0  0.61241006692E+02  0.10588497913E+02  0.84261194024E+02  0.10470208215E+03  0.00000000000E+00 0. -1.
        -11    1    5    5    0    0 -0.51193907490E+02 -0.19099264376E+02  0.21507097975E+03  0.22190341231E+03  0.00000000000E+00 0.  1.
         12    1    5    5    0    0 -0.20568372143E+02 -0.10497846311E+03  0.26987599810E+03  0.29030430586E+03  0.00000000000E+00 0. -1.
          5    1    4    4  502    0 -0.11773610454E+03  0.29439499653E+02  0.23801916334E+02  0.12376225464E+03  0.47000000000E+01 0.  1.
         -5    1    4    4    0  502 -0.40108006056E+02  0.10720545007E+03 -0.35157399097E+02  0.11983235534E+03  0.47000000000E+01 0.  1.
          1    1    1    2  503    0  0.20618659500E+03 -0.21910834071E+02  0.18395335109E+04  0.18511824693E+04  0.00000000000E+00 0. -1.
         -2    1    1    2    0  501 -0.14934805840E+02  0.86644477680E+01 -0.30026382840E+03  0.30075985059E+03  0.00000000000E+00 0.  1.
<mgrwt>
<rscale>  0 0.55558645E+02</rscale>
<asrwt>0</asrwt>
<pdfrwt beam="1">  1        2 0.38180447E+00 0.17877506E+03</pdfrwt>
<pdfrwt beam="2">  1       -1 0.67854462E-01 0.17266183E+02</pdfrwt>
<totfact> 0.12016036E+01</totfact>
</mgrwt>
</event>
<event>
13    1  0.1595792E-008  0.6461827E+02  0.7546771E-02  0.1449365E+00
          2   -1    0    0  503    0  0.00000000000E+00  0.00000000000E+00  0.92906037081E+03  0.92906037081E+03  0.00000000000E+00 0. -1.
         -3   -1    0    0    0  501 -0.00000000000E+00 -0.00000000000E+00 -0.78182810902E+03  0.78182810902E+03  0.00000000000E+00 0.  1.
         24    2    1    2    0    0  0.27530592048E+01 -0.17188016125E+02 -0.18720086152E+03  0.20562475056E+03  0.83272854274E+02 0.  0.
         25    2    1    2    0    0 -0.53541341822E+02  0.39234132165E+02 -0.19952038756E+03  0.24462664942E+03  0.12501128007E+03 0.  0.
         24    2    1    2    0    0  0.44729416113E+02  0.21535274804E+02  0.41664423401E+03  0.42710344580E+03  0.79752410350E+02 0.  0.
        -11    1    3    3    0    0 -0.19481882321E+01 -0.44757508065E+02 -0.57232991414E+02  0.72681808397E+02  0.00000000000E+00 0.  1.
         12    1    3    3    0    0  0.47012474369E+01  0.27569491940E+02 -0.12996787010E+03  0.13294294217E+03  0.00000000000E+00 0. -1.
        -11    1    5    5    0    0 -0.11165423393E+02  0.30173716394E+02  0.89522584738E+02  0.95128402798E+02  0.00000000000E+00 0.  1.
         12    1    5    5    0    0  0.55894839506E+02 -0.86384415899E+01  0.32712164927E+03  0.33197504300E+03  0.00000000000E+00 0. -1.
          5    1    4    4  502    0 -0.90466359505E+02  0.32001439423E+02 -0.10263690726E+03  0.14058690928E+03  0.47000000000E+01 0.  1.
         -5    1    4    4    0  502  0.36925017683E+02  0.72326927418E+01 -0.96883480296E+02  0.10403974014E+03  0.47000000000E+01 0.  1.
          1    1    1    2  503    0 -0.37271790567E+02  0.46010878015E+01  0.47173767660E+03  0.47323016800E+03  0.00000000000E+00 0. -1.
         -4    1    1    2    0  501  0.43330657071E+02 -0.48182478646E+02 -0.35442839975E+03  0.36030346604E+03  0.00000000000E+00 0.  1.
<mgrwt>
<rscale>  0 0.49261757E+02</rscale>
<asrwt>0</asrwt>
<pdfrwt beam="1">  1        2 0.13662653E+00 0.37554712E+02</pdfrwt>
<pdfrwt beam="2">  1       -3 0.11497472E+00 0.64618275E+02</pdfrwt>
<totfact> 0.13530221E+01</totfact>
</mgrwt>
</event>
<event>
13    1  0.1595792E-008  0.9127439E+02  0.7546771E-02  0.1330239E+00
          2   -1    0    0  503    0  0.00000000000E+00  0.00000000000E+00  0.41562355111E+04  0.41562355111E+04  0.00000000000E+00 0. -1.
         -1   -1    0    0    0  501 -0.00000000000E+00 -0.00000000000E+00 -0.93017457853E+02  0.93017457853E+02  0.00000000000E+00 0.  1.
         24    2    1    2    0    0  0.12478037932E+02  0.39459292367E+02  0.19437026824E+03  0.21467681597E+03  0.81200966461E+02 0.  0.
         25    2    1    2    0    0 -0.90152664700E+02 -0.98080697207E+02  0.58585681951E+03  0.61367948100E+03  0.12500786501E+03 0.  0.
         24    2    1    2    0    0 -0.16112435355E+00 -0.27346037873E+01  0.19615660209E+03  0.21111740213E+03  0.78010517999E+02 0.  0.
        -11    1    5    5    0    0  0.30226376380E+01  0.21225508746E+02  0.10461524506E+02  0.23855859967E+02  0.00000000000E+00 0.  1.
         12    1    5    5    0    0 -0.31837619915E+01 -0.23960112533E+02  0.18569507759E+03  0.18726154216E+03  0.00000000000E+00 0. -1.
        -13    1    3    3    0    0  0.42118238359E+02  0.52164778552E+01  0.65188831879E+02  0.77786511976E+02  0.00000000000E+00 0.  1.
         14    1    3    3    0    0 -0.29640200427E+02  0.34242814512E+02  0.12918143636E+03  0.13689030399E+03  0.00000000000E+00 0. -1.
          5    1    4    4  502    0 -0.63796184928E+02 -0.12474788293E+03  0.51020288763E+03  0.52911346992E+03  0.47000000000E+01 0.  1.
         -5    1    4    4    0  502 -0.26356479771E+02  0.26667185726E+02  0.75653931887E+02  0.84566011083E+02  0.47000000000E+01 0.  1.
          1    1    1    2  503    0  0.91519650456E+02 -0.66705885053E+01  0.31278358354E+04  0.31291815793E+04  0.00000000000E+00 0. -1.
         -2    1    1    2    0  501 -0.13683899335E+02  0.68026597132E+02 -0.41001471974E+02  0.80597690553E+02  0.00000000000E+00 0.  1.
<mgrwt>
<rscale>  0 0.79583044E+02</rscale>
<asrwt>0</asrwt>
<pdfrwt beam="1">  1        2 0.61121098E+00 0.91274391E+02</pdfrwt>
<pdfrwt beam="2">  1       -1 0.13679041E-01 0.69389243E+02</pdfrwt>
<totfact> 0.23355628E+01</totfact>
</mgrwt>
</event>
<event>
13    1  0.1595792E-008  0.8593689E+02  0.7546771E-02  0.1386673E+00
          2   -1    0    0  502    0  0.00000000000E+00  0.00000000000E+00  0.15526657284E+04  0.15526657284E+04  0.00000000000E+00 0. -1.
          2   -1    0    0  503    0 -0.00000000000E+00 -0.00000000000E+00 -0.14783725821E+03  0.14783725821E+03  0.00000000000E+00 0. -1.
         24    2    1    2    0    0  0.11818636321E+00 -0.84486719517E+02  0.13606050796E+03  0.17958550434E+03  0.81243287723E+02 0.  0.
         25    2    1    2    0    0 -0.51246215557E+02  0.10886980766E+03  0.22984063710E+03  0.28797828879E+03  0.12500386683E+03 0.  0.
         24    2    1    2    0    0 -0.70876785649E+02  0.37278683411E+02  0.33916514440E+03  0.35781625429E+03  0.81155761831E+02 0.  0.
        -13    1    3    3    0    0  0.35847848874E+02 -0.62178682780E+02  0.10527343210E+03  0.12741174344E+03  0.00000000000E+00 0.  1.
         14    1    3    3    0    0 -0.35729662510E+02 -0.22308036737E+02  0.30787075860E+02  0.52173760897E+02  0.00000000000E+00 0. -1.
        -13    1    5    5    0    0 -0.11275269090E+02 -0.24362392062E+02  0.58917914794E+02  0.64745490373E+02  0.00000000000E+00 0.  1.
         14    1    5    5    0    0 -0.59601516559E+02  0.61641075472E+02  0.28024722961E+03  0.29307076392E+03  0.00000000000E+00 0. -1.
          5    1    4    4  501    0  0.25459465900E+02  0.69204196558E+02  0.16202516417E+03  0.17807764893E+03  0.47000000000E+01 0.  1.
         -5    1    4    4    0  501 -0.76705681457E+02  0.39665611099E+02  0.67815472930E+02  0.10990063985E+03  0.47000000000E+01 0.  1.
          1    1    1    2  502    0  0.80027047347E+02 -0.79996722757E+02  0.77706877667E+03  0.78526408783E+03  0.00000000000E+00 0. -1.
          1    1    1    2  503    0  0.41977767495E+02  0.18334951206E+02 -0.77306595919E+02  0.89858851385E+02  0.00000000000E+00 0. -1.
<mgrwt>
<rscale>  0 0.62741788E+02</rscale>
<asrwt>0</asrwt>
<pdfrwt beam="1">  1        2 0.22833319E+00 0.85936893E+02</pdfrwt>
<pdfrwt beam="2">  1        2 0.21740774E-01 0.45807242E+02</pdfrwt>
<totfact> 0.56031369E+02</totfact>
</mgrwt>
</event>
<event>
13    1  0.1595792E-008  0.4165959E+02  0.7546771E-02  0.1614115E+00
          2   -1    0    0  503    0  0.00000000000E+00  0.00000000000E+00  0.41292535599E+04  0.41292535599E+04  0.00000000000E+00 0. -1.
          2   -1    0    0  502    0 -0.00000000000E+00 -0.00000000000E+00 -0.21678087217E+03  0.21678087217E+03  0.00000000000E+00 0. -1.
         24    2    1    2    0    0 -0.12606229895E+03 -0.51709174300E+02 -0.85889256353E+02  0.17950633795E+03  0.79246571430E+02 0.  0.
         25    2    1    2    0    0  0.70860078687E+02 -0.74699517031E+01  0.15862904398E+03  0.21415982407E+03  0.12499722285E+03 0.  0.
         24    2    1    2    0    0  0.67186178419E+02  0.75418979147E+01  0.11178105383E+04  0.11227438773E+04  0.80514294734E+02 0.  0.
        -11    1    3    3    0    0 -0.85017280726E+02 -0.68328406338E+02 -0.79035445803E+02  0.13469710772E+03  0.00000000000E+00 0.  1.
         12    1    3    3    0    0 -0.41045018226E+02  0.16619232039E+02 -0.68538105498E+01  0.44809230230E+02  0.00000000000E+00 0. -1.
        -13    1    5    5    0    0  0.84836559178E+02  0.11584248936E+02  0.84294170565E+03  0.84727926667E+03  0.00000000000E+00 0.  1.
         14    1    5    5    0    0 -0.17650380759E+02 -0.40423510217E+01  0.27486883265E+03  0.27546461063E+03  0.00000000000E+00 0. -1.
          5    1    4    4  501    0  0.88698138028E+02  0.35770136239E+02  0.93463629288E+02  0.13380733289E+03  0.47000000000E+01 0.  1.
         -5    1    4    4    0  501 -0.17838059340E+02 -0.43240087942E+02  0.65165414688E+02  0.80352491173E+02  0.47000000000E+01 0.  1.
          1    1    1    2  502    0 -0.16739585437E+02  0.10257957342E+02 -0.51900075275E+02  0.55489253220E+02  0.00000000000E+00 0. -1.
          1    1    1    2  503    0  0.47556272823E+01  0.41379270747E+02  0.27738224371E+04  0.27741351395E+04  0.00000000000E+00 0. -1.
<mgrwt>
<rscale>  0 0.28598716E+02</rscale>
<asrwt>0</asrwt>
<pdfrwt beam="1">  1        2 0.60724312E+00 0.41659592E+02</pdfrwt>
<pdfrwt beam="2">  1        2 0.31879542E-01 0.19632611E+02</pdfrwt>
<totfact> 0.17494586E+01</totfact>
</mgrwt>
</event>
<event>
13    1  0.1595792E-008  0.8857751E+02  0.7546771E-02  0.1411688E+00
          2   -1    0    0  503    0  0.00000000000E+00  0.00000000000E+00  0.18764176110E+04  0.18764176110E+04  0.00000000000E+00 0. -1.
         -3   -1    0    0    0  501 -0.00000000000E+00 -0.00000000000E+00 -0.78914571848E+03  0.78914571848E+03  0.00000000000E+00 0.  1.
         24    2    1    2    0    0  0.75013653203E+02  0.34641893038E+02  0.94308458375E+02  0.14883027250E+03  0.80182640077E+02 0.  0.
         25    2    1    2    0    0 -0.16878872103E+03  0.57689219184E+02  0.38031098208E+03  0.43826805800E+03  0.12499907686E+03 0.  0.
         24    2    1    2    0    0 -0.14340524906E+02 -0.56398200750E+02  0.48382725573E+03  0.49402541104E+03  0.81153469841E+02 0.  0.
        -13    1    5    5    0    0  0.28279415170E+02 -0.47254021946E+02  0.30734308622E+03  0.31223779489E+03  0.00000000000E+00 0.  1.
         14    1    5    5    0    0 -0.42619940077E+02 -0.91441788044E+01  0.17648416951E+03  0.18178761615E+03  0.00000000000E+00 0. -1.
        -13    1    3    3    0    0  0.81872603043E+02  0.10838818961E+02  0.92484125130E+02  0.12399159861E+03  0.00000000000E+00 0.  1.
         14    1    3    3    0    0 -0.68589498406E+01  0.23803074077E+02  0.18243332454E+01  0.24838673882E+02  0.00000000000E+00 0. -1.
          5    1    4    4  502    0 -0.88754385467E+02 -0.11629755660E+02  0.27343244424E+03  0.28774986311E+03  0.47000000000E+01 0. -1.
         -5    1    4    4    0  502 -0.80034335567E+02  0.69318974844E+02  0.10687853784E+03  0.15051819489E+03  0.47000000000E+01 0. -1.
          1    1    1    2  503    0  0.87583074954E+02 -0.58197834553E+01  0.85392494530E+03  0.85842441549E+03  0.00000000000E+00 0. -1.
         -4    1    1    2    0  501  0.20532517783E+02 -0.30113128016E+02 -0.72509974894E+03  0.72601517248E+03  0.00000000000E+00 0.  1.
<mgrwt>
<rscale>  0 0.56818885E+02</rscale>
<asrwt>0</asrwt>
<pdfrwt beam="1">  1        2 0.27594377E+00 0.88577510E+02</pdfrwt>
<pdfrwt beam="2">  1       -3 0.11605084E+00 0.36447013E+02</pdfrwt>
<totfact> 0.41117936E+00</totfact>
</mgrwt>
</event>
<event>
13    1  0.1595792E-008  0.5484815E+02  0.7546771E-02  0.1602664E+00
          2   -1    0    0  502    0  0.00000000000E+00  0.00000000000E+00  0.59200521495E+03  0.59200521495E+03  0.00000000000E+00 0. -1.
          2   -1    0    0  503    0 -0.00000000000E+00 -0.00000000000E+00 -0.25928346467E+04  0.25928346467E+04  0.00000000000E+00 0. -1.
         24    2    1    2    0    0 -0.58307675937E+03  0.96743293147E+02 -0.10818406058E+04  0.12339693822E+04  0.54438660684E+02 0.  0.
         25    2    1    2    0    0  0.16072291225E+03 -0.37169458281E+03 -0.67682684999E+03  0.79856659902E+03  0.12500124311E+03 0.  0.
         24    2    1    2    0    0  0.37789504126E+03  0.25391868703E+03 -0.30381592993E+03  0.55317251361E+03  0.80102114155E+02 0.  0.
        -11    1    3    3    0    0 -0.30962578143E+03  0.63693490375E+02 -0.52737372302E+03  0.61485610429E+03  0.00000000000E+00 0.  1.
         12    1    3    3    0    0 -0.27345097793E+03  0.33049802772E+02 -0.55446688279E+03  0.61911327793E+03  0.00000000000E+00 0. -1.
        -11    1    5    5    0    0  0.77598344920E+02  0.93935233458E+02 -0.86905263224E+02  0.14965913268E+03  0.00000000000E+00 0.  1.
         12    1    5    5    0    0  0.30029669634E+03  0.15998345357E+03 -0.21691066671E+03  0.40351338092E+03  0.00000000000E+00 0. -1.
          5    1    4    4  501    0  0.87534063916E+02 -0.13652981378E+03 -0.16973113430E+03  0.23480491976E+03  0.47000000000E+01 0.  1.
         -5    1    4    4    0  501  0.73188848332E+02 -0.23516476903E+03 -0.50709571570E+03  0.56376167925E+03  0.47000000000E+01 0.  1.
          1    1    1    2  502    0  0.40871413961E+02  0.36587898168E+02  0.32787496959E+03  0.33243216219E+03  0.00000000000E+00 0. -1.
          1    1    1    2  503    0  0.35873918942E+01 -0.15555295534E+02 -0.26622101559E+03  0.26669920462E+03  0.00000000000E+00 0. -1.
<mgrwt>
<rscale>  0 0.29590100E+02</rscale>
<asrwt>0</asrwt>
<pdfrwt beam="1">  1        2 0.87059591E-01 0.54848148E+02</pdfrwt>
<pdfrwt beam="2">  1        2 0.38129921E+00 0.15963602E+02</pdfrwt>
<totfact> 0.53906258E+01</totfact>
</mgrwt>
</event>
<event>
13    1  0.1595792E-008  0.5501830E+02  0.7546771E-02  0.1526652E+00
          2   -1    0    0  503    0  0.00000000000E+00  0.00000000000E+00  0.34120226700E+04  0.34120226700E+04  0.00000000000E+00 0. -1.
         -1   -1    0    0    0  501 -0.00000000000E+00 -0.00000000000E+00 -0.77569396908E+03  0.77569396908E+03  0.00000000000E+00 0.  1.
         24    2    1    2    0    0  0.16425157837E+03 -0.54054647555E+02 -0.30913190961E+03  0.36302722742E+03  0.79534548367E+02 0.  0.
         25    2    1    2    0    0 -0.24487281618E+03  0.18048071089E+03  0.65803720521E+03  0.73564484270E+03  0.12499755214E+03 0.  0.
         24    2    1    2    0    0  0.26481559917E+02 -0.71280418342E+02  0.96279121226E+02  0.14652956990E+03  0.80119127660E+02 0.  0.
        -13    1    5    5    0    0  0.49379498546E+02 -0.20933626846E+02  0.35322112837E+02  0.64219960019E+02  0.00000000000E+00 0.  1.
         14    1    5    5    0    0 -0.22897938629E+02 -0.50346791495E+02  0.60957008389E+02  0.82309609883E+02  0.00000000000E+00 0. -1.
        -13    1    3    3    0    0  0.10449100903E+03  0.21062732732E+01 -0.13658606019E+03  0.17198418298E+03  0.00000000000E+00 0.  1.
         14    1    3    3    0    0  0.59760569343E+02 -0.56160920828E+02 -0.17254584942E+03  0.19104304444E+03  0.00000000000E+00 0. -1.
          5    1    4    4  502    0  0.94594467230E+01 -0.42124223573E+01  0.90528631615E+01  0.14535128683E+02  0.47000000000E+01 0. -1.
         -5    1    4    4    0  502 -0.25433226291E+03  0.18469313325E+03  0.64898434205E+03  0.72110971401E+03  0.47000000000E+01 0. -1.
          1    1    1    2  503    0  0.45463481790E+02 -0.30958052467E+02  0.25660951823E+04  0.25666845957E+04  0.00000000000E+00 0. -1.
         -2    1    1    2    0  501  0.86761961055E+01 -0.24187592527E+02 -0.37495089821E+03  0.37583040335E+03  0.00000000000E+00 0.  1.
<mgrwt>
<rscale>  0 0.37600319E+02</rscale>
<asrwt>0</asrwt>
<pdfrwt beam="1">  1        2 0.50176803E+00 0.55018296E+02</pdfrwt>
<pdfrwt beam="2">  1       -1 0.11407264E+00 0.25696615E+02</pdfrwt>
<totfact> 0.18448517E+00</totfact>
</mgrwt>
</event>
<event>
13    1  0.1595792E-008  0.9560128E+02  0.7546771E-02  0.1359227E+00
          2   -1    0    0  503    0  0.00000000000E+00  0.00000000000E+00  0.16712765130E+04  0.16712765130E+04  0.00000000000E+00 0. -1.
          2   -1    0    0  502    0 -0.00000000000E+00 -0.00000000000E+00 -0.34151841367E+04  0.34151841367E+04  0.00000000000E+00 0. -1.
         24    2    1    2    0    0 -0.54365267958E+01 -0.27130967287E+02 -0.17187041259E+03  0.19194743972E+03  0.80862449134E+02 0.  0.
         25    2    1    2    0    0 -0.84639155356E+02 -0.29882991229E+02 -0.23480764168E+03  0.28073856829E+03  0.12499094107E+03 0.  0.
         24    2    1    2    0    0 -0.31961712675E+02  0.42708883296E+02 -0.54645418530E+01  0.96744901307E+02  0.80524002147E+02 0.  0.
        -11    1    5    5    0    0  0.12352267045E+02 -0.12430799498E+02  0.15039961854E+02  0.23093369825E+02  0.00000000000E+00 0.  1.
         12    1    5    5    0    0 -0.44313979720E+02  0.55139682794E+02 -0.20504503707E+02  0.73651531481E+02  0.00000000000E+00 0. -1.
        -13    1    3    3    0    0  0.19756067202E+02 -0.46262859712E+02 -0.77305451718E+02  0.92231704122E+02  0.00000000000E+00 0.  1.
         14    1    3    3    0    0 -0.25192593998E+02  0.19131892425E+02 -0.94564960872E+02  0.99715735593E+02  0.00000000000E+00 0. -1.
          5    1    4    4  501    0 -0.75919934794E+02 -0.31199225963E+01 -0.44248513056E+02  0.88054479294E+02  0.47000000000E+01 0.  1.
         -5    1    4    4    0  501 -0.87192205627E+01 -0.26763068633E+02 -0.19055912862E+03  0.19268408899E+03  0.47000000000E+01 0.  1.
          1    1    1    2  502    0  0.39234033730E+02 -0.33559847472E+02 -0.29227332921E+04  0.29231892634E+04  0.00000000000E+00 0. -1.
          1    1    1    2  503    0  0.82803361096E+02  0.47864922692E+02  0.15909682645E+04  0.15938404770E+04  0.00000000000E+00 0. -1.
<mgrwt>
<rscale>  0 0.70255364E+02</rscale>
<asrwt>0</asrwt>
<pdfrwt beam="1">  1        2 0.24577596E+00 0.95601280E+02</pdfrwt>
<pdfrwt beam="2">  1        2 0.50223296E+00 0.51629185E+02</pdfrwt>
<totfact> 0.39690629E+00</totfact>
</mgrwt>
</event>
<event>
13    1  0.1595792E-008  0.8301413E+02  0.7546771E-02  0.1507302E+00
          2   -1    0    0  503    0  0.00000000000E+00  0.00000000000E+00  0.15646283994E+04  0.15646283994E+04  0.00000000000E+00 0. -1.
          2   -1    0    0  502    0 -0.00000000000E+00 -0.00000000000E+00 -0.15849769944E+04  0.15849769944E+04  0.00000000000E+00 0. -1.
         24    2    1    2    0    0  0.20039279188E+03 -0.17033769281E+03 -0.17610779687E+03  0.32531406312E+03  0.75120456022E+02 0.  0.
         25    2    1    2    0    0 -0.18443894773E+03  0.35105503347E+03  0.39995218672E+02  0.41771014860E+03  0.12499915503E+03 0.  0.
         24    2    1    2    0    0 -0.93789027614E+02 -0.13339731958E+03  0.50956817940E+02  0.18763711282E+03  0.77587771207E+02 0.  0.
        -13    1    5    5    0    0 -0.64691349874E+02 -0.12029345075E+03  0.66758610160E+02  0.15202696166E+03  0.00000000000E+00 0.  1.
         14    1    5    5    0    0 -0.29097677741E+02 -0.13103868833E+02 -0.15801792220E+02  0.35610151160E+02  0.00000000000E+00 0. -1.
        -13    1    3    3    0    0  0.92738942300E+02 -0.12557953608E+03 -0.88247478900E+02  0.17932749045E+03  0.00000000000E+00 0.  1.
         14    1    3    3    0    0  0.10765384958E+03 -0.44758156731E+02 -0.87860317973E+02  0.14598657266E+03  0.00000000000E+00 0. -1.
          5    1    4    4  501    0 -0.46846349834E+01  0.13244718999E+03  0.81365049318E+01  0.13286269850E+03  0.47000000000E+01 0.  1.
         -5    1    4    4    0  501 -0.17975431275E+03  0.21860784348E+03  0.31858713740E+02  0.28484745010E+03  0.47000000000E+01 0.  1.
          1    1    1    2  502    0  0.60765346646E+02 -0.56524484562E+02 -0.10753872159E+04  0.10785847713E+04  0.00000000000E+00 0. -1.
          1    1    1    2  503    0  0.17069836822E+02  0.92044634808E+01  0.11401943812E+04  0.11403592980E+04  0.00000000000E+00 0. -1.
<mgrwt>
<rscale>  0 0.40123819E+02</rscale>
<asrwt>0</asrwt>
<pdfrwt beam="1">  1        2 0.23009241E+00 0.19393336E+02</pdfrwt>
<pdfrwt beam="2">  1        2 0.23308485E+00 0.83014129E+02</pdfrwt>
<totfact> 0.39566509E+01</totfact>
</mgrwt>
</event>
<event>
13    1  0.1595792E-008  0.1177809E+03  0.7546771E-02  0.1439340E+00
          2   -1    0    0  503    0  0.00000000000E+00  0.00000000000E+00  0.82932018455E+03  0.82932018455E+03  0.00000000000E+00 0. -1.
          2   -1    0    0  502    0 -0.00000000000E+00 -0.00000000000E+00 -0.28979331525E+04  0.28979331525E+04  0.00000000000E+00 0. -1.
         24    2    1    2    0    0 -0.66549759964E+03  0.21223845156E+03 -0.10773441234E+04  0.12865396537E+04  0.81127707941E+02 0.  0.
         25    2    1    2    0    0  0.33863755927E+03 -0.45017071359E+03 -0.23677585068E+03  0.62371254837E+03  0.12500188647E+03 0.  0.
         24    2    1    2    0    0  0.40180306976E+03  0.12253830729E+03  0.38699022101E+03  0.57699865789E+03  0.81882088587E+02 0.  0.
        -11    1    5    5    0    0  0.10628867051E+03 -0.27663224480E+01  0.82622149399E+02  0.13465271475E+03  0.00000000000E+00 0.  1.
         12    1    5    5    0    0  0.29551439925E+03  0.12530462973E+03  0.30436807161E+03  0.44234594314E+03  0.00000000000E+00 0. -1.
        -13    1    3    3    0    0 -0.11973533050E+03  0.23881615296E+02 -0.24251910560E+03  0.27151868720E+03  0.00000000000E+00 0.  1.
         14    1    3    3    0    0 -0.54576226914E+03  0.18835683626E+03 -0.83482501779E+03  0.10150209665E+04  0.00000000000E+00 0. -1.
          5    1    4    4  501    0  0.11643039590E+03 -0.12481483224E+03 -0.13247849963E+03  0.21611900032E+03  0.47000000000E+01 0.  1.
         -5    1    4    4    0  501  0.22220716337E+03 -0.32535588135E+03 -0.10429735105E+03  0.40759354805E+03  0.47000000000E+01 0.  1.
          1    1    1    2  502    0 -0.56277005203E+02  0.10338354176E+03 -0.11851697139E+04  0.11910006334E+04  0.00000000000E+00 0. -1.
          1    1    1    2  503    0 -0.18666024189E+02  0.12010412979E+02  0.43686499039E+02  0.49001843611E+02  0.00000000000E+00 0. -1.
<mgrwt>
<rscale>  0 0.51130086E+02</rscale>
<asrwt>0</asrwt>
<pdfrwt beam="1">  1        2 0.12195885E+00 0.22196182E+02</pdfrwt>
<pdfrwt beam="2">  1        2 0.42616663E+00 0.11778088E+03</pdfrwt>
<totfact> 0.19628415E+01</totfact>
</mgrwt>
</event>
<event>
13    1  0.1595792E-008  0.5813072E+02  0.7546771E-02  0.1445187E+00
          2   -1    0    0  502    0  0.00000000000E+00  0.00000000000E+00  0.41886296529E+04  0.41886296529E+04  0.00000000000E+00 0. -1.
          2   -1    0    0  503    0 -0.00000000000E+00 -0.00000000000E+00 -0.31963506316E+04  0.31963506316E+04  0.00000000000E+00 0. -1.
         24    2    1    2    0    0 -0.17216399264E+03 -0.17471346807E+03 -0.26022927097E+03  0.36695393672E+03  0.82284153503E+02 0.  0.
         25    2    1    2    0    0  0.14549999958E+03  0.27274997348E+02  0.63680735702E+03  0.66564568920E+03  0.12508556367E+03 0.  0.
         24    2    1    2    0    0  0.31618228199E+02  0.52125614875E+02  0.14064105829E+04  0.14101322284E+04  0.82251940471E+02 0.  0.
        -11    1    5    5    0    0  0.42291825901E+02  0.18935102754E+02  0.11924279660E+04  0.11933279477E+04  0.00000000000E+00 0.  1.
         12    1    5    5    0    0 -0.10673597701E+02  0.33190512121E+02  0.21398261692E+03  0.21680428069E+03  0.00000000000E+00 0. -1.
        -11    1    3    3    0    0 -0.41353811248E+02 -0.69201849175E+02 -0.13549177936E+03  0.15766120610E+03  0.00000000000E+00 0.  1.
         12    1    3    3    0    0 -0.13081018139E+03 -0.10551161890E+03 -0.12473749160E+03  0.20929273062E+03  0.00000000000E+00 0. -1.
          5    1    4    4  501    0  0.67622048321E+02 -0.49088456059E+02  0.30922029124E+03  0.32034621342E+03  0.47000000000E+01 0.  1.
         -5    1    4    4    0  501  0.77877951264E+02  0.76363453407E+02  0.32758706579E+03  0.34529947579E+03  0.47000000000E+01 0.  1.
          1    1    1    2  502    0  0.14502439019E+02  0.40539888798E+02  0.20752514015E+04  0.20756979989E+04  0.00000000000E+00 0. -1.
          1    1    1    2  503    0 -0.19456674162E+02  0.54772967051E+02 -0.28659610492E+04  0.28665504314E+04  0.00000000000E+00 0. -1.
<mgrwt>
<rscale>  0 0.50028648E+02</rscale>
<asrwt>0</asrwt>
<pdfrwt beam="1">  1        2 0.61597495E+00 0.43055816E+02</pdfrwt>
<pdfrwt beam="2">  1        2 0.47005156E+00 0.58130721E+02</pdfrwt>
<totfact> 0.25713968E-01</totfact>
</mgrwt>
</event>
<event>
13    1  0.1595792E-008  0.9837238E+02  0.7546771E-02  0.1363303E+00
          2   -1    0    0  503    0  0.00000000000E+00  0.00000000000E+00  0.16589810485E+04  0.16589810485E+04  0.00000000000E+00 0. -1.
          2   -1    0    0  502    0 -0.00000000000E+00 -0.00000000000E+00 -0.16849736523E+04  0.16849736523E+04  0.00000000000E+00 0. -1.
         24    2    1    2    0    0 -0.39307346430E+02  0.76808718107E+02 -0.71868767371E+03  0.72845505023E+03  0.81793283338E+02 0.  0.
         25    2    1    2    0    0  0.11096819316E+03 -0.45316056830E+02 -0.45342265689E+03  0.48537016413E+03  0.12499842216E+03 0.  0.
         24    2    1    2    0    0  0.27171847257E+02  0.36640274457E+02  0.20406474396E+03  0.22413944006E+03  0.80717097722E+02 0.  0.
        -13    1    5    5    0    0  0.46909409942E+02 -0.13807098662E+01  0.78390254147E+02  0.91364276641E+02  0.00000000000E+00 0.  1.
         14    1    5    5    0    0 -0.19737562685E+02  0.38020984323E+02  0.12567448982E+03  0.13277516342E+03  0.00000000000E+00 0. -1.
        -13    1    3    3    0    0 -0.43158166477E+02  0.52258054848E+02 -0.67335817667E+03  0.67676049361E+03  0.00000000000E+00 0.  1.
         14    1    3    3    0    0  0.38508200462E+01  0.24550663259E+02 -0.45329497042E+02  0.51694556615E+02  0.00000000000E+00 0. -1.
          5    1    4    4  501    0  0.33596242064E+02 -0.60560852556E+02 -0.34083337929E+03  0.34783014071E+03  0.47000000000E+01 0. -1.
         -5    1    4    4    0  501  0.77371951091E+02  0.15244795726E+02 -0.11258927760E+03  0.13754002342E+03  0.47000000000E+01 0. -1.
          1    1    1    2  502    0 -0.50919494402E+01  0.48220245566E+02 -0.47681617060E+03  0.47927526598E+03  0.00000000000E+00 0. -1.
          1    1    1    2  503    0 -0.93740744541E+02 -0.11635318130E+03  0.14188691535E+04  0.14267147804E+04  0.00000000000E+00 0. -1.
<mgrwt>
<rscale>  0 0.69064565E+02</rscale>
<asrwt>0</asrwt>
<pdfrwt beam="1">  1        2 0.24396780E+00 0.98372376E+02</pdfrwt>
<pdfrwt beam="2">  1        2 0.24779024E+00 0.48488349E+02</pdfrwt>
<totfact> 0.28979905E+01</totfact>
</mgrwt>
</event>
<event>
13    1  0.1595792E-008  0.6542439E+02  0.7546771E-02  0.1388991E+00
          2   -1    0    0  502    0  0.00000000000E+00  0.00000000000E+00  0.24388808100E+04  0.24388808100E+04  0.00000000000E+00 0. -1.
          2   -1    0    0  503    0 -0.00000000000E+00 -0.00000000000E+00 -0.22075282554E+04  0.22075282554E+04  0.00000000000E+00 0. -1.
         24    2    1    2    0    0 -0.35147101979E+03  0.28022596115E+02 -0.13171846231E+03  0.38893554227E+03  0.97999791232E+02 0.  0.
         25    2    1    2    0    0  0.76984870061E+03 -0.43536921210E+03  0.48032495559E+03  0.10141736586E+04  0.12499109672E+03 0.  0.
         24    2    1    2    0    0 -0.30004518291E+03  0.36918205156E+03  0.31511379978E+03  0.57837609760E+03  0.94338245062E+02 0.  0.
        -11    1    3    3    0    0 -0.10878901613E+03  0.54671840817E+02 -0.47083367680E+02  0.13054081247E+03  0.00000000000E+00 0.  1.
         12    1    3    3    0    0 -0.24268200366E+03 -0.26649244702E+02 -0.84635094634E+02  0.25839472980E+03  0.00000000000E+00 0. -1.
        -13    1    5    5    0    0 -0.18993109274E+03  0.17894633309E+03  0.20882280852E+03  0.33421935234E+03  0.00000000000E+00 0.  1.
         14    1    5    5    0    0 -0.11011409017E+03  0.19023571847E+03  0.10629099126E+03  0.24415674526E+03  0.00000000000E+00 0. -1.
          5    1    4    4  501    0  0.32994732386E+03 -0.14250892102E+03  0.24907506971E+03  0.43730368103E+03  0.47000000000E+01 0.  1.
         -5    1    4    4    0  501  0.43990137675E+03 -0.29286029108E+03  0.23124988588E+03  0.57686997762E+03  0.47000000000E+01 0.  1.
          1    1    1    2  502    0 -0.62748456326E+02  0.18215591202E+02  0.11147580654E+04  0.11166712681E+04  0.00000000000E+00 0. -1.
          1    1    1    2  503    0 -0.55584041588E+02  0.19948973221E+02 -0.15471258039E+04  0.15482524989E+04  0.00000000000E+00 0. -1.
<mgrwt>
<rscale>  0 0.62158404E+02</rscale>
<asrwt>0</asrwt>
<pdfrwt beam="1">  1        2 0.35865894E+00 0.65424387E+02</pdfrwt>
<pdfrwt beam="2">  1        2 0.32463651E+00 0.59055459E+02</pdfrwt>
<totfact> 0.71392682E+00</totfact>
</mgrwt>
</event>
<event>
13    1  0.1595792E-008  0.5694429E+02  0.7546771E-02  0.1473434E+00
          2   -1    0    0  503    0  0.00000000000E+00  0.00000000000E+00  0.30444604017E+04  0.30444604017E+04  0.00000000000E+00 0. -1.
          2   -1    0    0  502    0 -0.00000000000E+00 -0.00000000000E+00 -0.38053566949E+03  0.38053566949E+03  0.00000000000E+00 0. -1.
         24    2    1    2    0    0  0.82777923742E+02  0.25091206939E+03  0.25756565341E+03  0.37769199666E+03  0.80635769336E+02 0.  0.
         25    2    1    2    0    0 -0.86968639416E+02 -0.25073877314E+03  0.26900624455E+03  0.39802385778E+03  0.12500062064E+03 0.  0.
         24    2    1    2    0    0 -0.20310519011E+02 -0.17360607265E+02  0.32058125202E+03  0.33270203889E+03  0.84878735089E+02 0.  0.
        -11    1    5    5    0    0 -0.23577001842E+02 -0.80115316654E+01  0.32176604293E+03  0.32272813022E+03  0.00000000000E+00 0.  1.
         12    1    5    5    0    0  0.32664828306E+01 -0.93490755997E+01 -0.11847909095E+01  0.99739086697E+01  0.00000000000E+00 0. -1.
        -13    1    3    3    0    0  0.92519976823E+02  0.18315787279E+03  0.16949928257E+03  0.26615175985E+03  0.00000000000E+00 0.  1.
         14    1    3    3    0    0 -0.97420530814E+01  0.67754196603E+02  0.88066370836E+02  0.11154023681E+03  0.00000000000E+00 0. -1.
          5    1    4    4  501    0 -0.90623563637E+02 -0.20688683766E+03  0.15031597271E+03  0.27135175609E+03  0.47000000000E+01 0. -1.
         -5    1    4    4    0  501  0.36549242216E+01 -0.43851935473E+02  0.11869027185E+03  0.12667210169E+03  0.47000000000E+01 0. -1.
          1    1    1    2  502    0  0.57007488651E+02  0.22075006478E+01 -0.24649007812E+03  0.25300609762E+03  0.00000000000E+00 0. -1.
          1    1    1    2  503    0 -0.32506253966E+02  0.14979810359E+02  0.20632616603E+04  0.20635720802E+04  0.00000000000E+00 0. -1.
<mgrwt>
<rscale>  0 0.45145735E+02</rscale>
<asrwt>0</asrwt>
<pdfrwt beam="1">  1        2 0.44771475E+00 0.35791777E+02</pdfrwt>
<pdfrwt beam="2">  1        2 0.55961130E-01 0.56944292E+02</pdfrwt>
<totfact> 0.44854777E+01</totfact>
</mgrwt>
</event>
<event>
13    1  0.1595792E-008  0.5018831E+02  0.7546771E-02  0.1460028E+00
          2   -1    0    0  503    0  0.00000000000E+00  0.00000000000E+00  0.12772991076E+04  0.12772991076E+04  0.00000000000E+00 0. -1.
          2   -1    0    0  502    0 -0.00000000000E+00 -0.00000000000E+00 -0.15527161639E+04  0.15527161639E+04  0.00000000000E+00 0. -1.
         24    2    1    2    0    0  0.10604282443E+02 -0.10703781984E+02 -0.85454723833E+02  0.12054969042E+03  0.83682114459E+02 0.  0.
         25    2    1    2    0    0 -0.12901023103E+01  0.50153563615E+02  0.27840144510E+03  0.30926974305E+03  0.12499345994E+03 0.  0.
         24    2    1    2    0    0 -0.60958281715E+02  0.31791643177E+02  0.30118019376E+03  0.31883435045E+03  0.78861988491E+02 0.  0.
        -11    1    3    3    0    0  0.42376026546E+02 -0.17986764470E+02 -0.71620654252E+02  0.85139705411E+02  0.00000000000E+00 0.  1.
         12    1    3    3    0    0 -0.31771744104E+02  0.72829824852E+01 -0.13834069581E+02  0.35409985010E+02  0.00000000000E+00 0. -1.
        -11    1    5    5    0    0 -0.51314258500E+02 -0.16582790214E+02  0.13144805489E+03  0.14208002390E+03  0.00000000000E+00 0.  1.
         12    1    5    5    0    0 -0.96440232147E+01  0.48374433391E+02  0.16973213887E+03  0.17675432655E+03  0.00000000000E+00 0. -1.
          5    1    4    4  501    0 -0.25832508777E+02 -0.78629826730E+01  0.22468136400E+03  0.22634696891E+03  0.47000000000E+01 0. -1.
         -5    1    4    4    0  501  0.24542406467E+02  0.58016546288E+02  0.53720081101E+02  0.82922774144E+02  0.47000000000E+01 0. -1.
          1    1    1    2  502    0  0.41893817462E+02 -0.27594969480E+02 -0.14242482834E+04  0.14251314841E+04  0.00000000000E+00 0. -1.
          1    1    1    2  503    0  0.97502841201E+01 -0.43646455327E+02  0.65470431211E+03  0.65623000343E+03  0.00000000000E+00 0. -1.
<mgrwt>
<rscale>  0 0.47376522E+02</rscale>
<asrwt>0</asrwt>
<pdfrwt beam="1">  1        2 0.18783811E+00 0.44722266E+02</pdfrwt>
<pdfrwt beam="2">  1        2 0.22834061E+00 0.50188307E+02</pdfrwt>
<totfact> 0.54483633E+01</totfact>
</mgrwt>
</event>
<event>
13    1  0.1595792E-008  0.8268721E+02  0.7546771E-02  0.1421482E+00
          2   -1    0    0  502    0  0.00000000000E+00  0.00000000000E+00  0.23099521415E+04  0.23099521415E+04  0.00000000000E+00 0. -1.
          4   -1    0    0  503    0 -0.00000000000E+00 -0.00000000000E+00 -0.22174937084E+03  0.22174937084E+03  0.00000000000E+00 0. -1.
         24    2    1    2    0    0  0.63673611307E+02  0.38135488080E+02 -0.27203800994E+02  0.11293956130E+03  0.80663830122E+02 0.  0.
         25    2    1    2    0    0  0.14386468127E+02 -0.25759608212E+02  0.19701689051E+03  0.23517981806E+03  0.12499345501E+03 0.  0.
         24    2    1    2    0    0  0.32481386627E+02  0.18474428652E+02  0.69878910929E+03  0.70433730480E+03  0.79927934295E+02 0.  0.
        -13    1    5    5    0    0  0.26167803543E+01 -0.22257305587E+02  0.69484103320E+02  0.73008737871E+02  0.00000000000E+00 0.  1.
         14    1    5    5    0    0  0.29864606273E+02  0.40731734240E+02  0.62930500597E+03  0.63132856693E+03  0.00000000000E+00 0. -1.
        -13    1    3    3    0    0  0.73134341459E+02  0.30170772729E+01 -0.16606715126E+02  0.75056762808E+02  0.00000000000E+00 0.  1.
         14    1    3    3    0    0 -0.94607301524E+01  0.35118410807E+02 -0.10597085868E+02  0.37882798491E+02  0.00000000000E+00 0. -1.
          5    1    4    4  501    0 -0.61721882831E+01 -0.30672949662E+02  0.20835065819E+03  0.21073920498E+03  0.47000000000E+01 0.  1.
         -5    1    4    4    0  501  0.20558656410E+02  0.49133414497E+01 -0.11333767682E+02  0.24440613074E+02  0.47000000000E+01 0.  1.
          1    1    1    2  502    0 -0.35801089435E+02  0.53386780102E+01  0.13358731631E+04  0.13363634713E+04  0.00000000000E+00 0. -1.
          3    1    1    2  503    0 -0.74740376626E+02 -0.36188986530E+02 -0.11627259130E+03  0.14288135684E+03  0.00000000000E+00 0. -1.
<mgrwt>
<rscale>  0 0.54708548E+02</rscale>
<asrwt>0</asrwt>
<pdfrwt beam="1">  1        2 0.33969883E+00 0.36196954E+02</pdfrwt>
<pdfrwt beam="2">  1        4 0.32610203E-01 0.82687211E+02</pdfrwt>
<totfact> 0.32619778E+01</totfact>
</mgrwt>
</event>
<event>
13    1  0.1595792E-008  0.6182129E+02  0.7546771E-02  0.1404752E+00
          2   -1    0    0  502    0  0.00000000000E+00  0.00000000000E+00  0.20437005456E+04  0.20437005456E+04  0.00000000000E+00 0. -1.
          2   -1    0    0  503    0 -0.00000000000E+00 -0.00000000000E+00 -0.10129496399E+04  0.10129496399E+04  0.00000000000E+00 0. -1.
         24    2    1    2    0    0  0.96617167997E+02 -0.20757037668E+02  0.14473051200E+03  0.19199909079E+03  0.78428298434E+02 0.  0.
         25    2    1    2    0    0 -0.15288966258E+02  0.56558829009E+02  0.11843151519E+03  0.18189115422E+03  0.12500285824E+03 0.  0.
         24    2    1    2    0    0  0.29796853507E+02 -0.65041377255E+02  0.87863867039E+03  0.88507026938E+03  0.78900160945E+02 0.  0.
        -11    1    3    3    0    0  0.43553759462E+01 -0.28143351917E+02  0.60436666094E+02  0.66810239974E+02  0.00000000000E+00 0.  1.
         12    1    3    3    0    0  0.92261792051E+02  0.73863142496E+01  0.84293845905E+02  0.12518885081E+03  0.00000000000E+00 0. -1.
        -13    1    5    5    0    0  0.21688396974E+02 -0.33137631835E+02  0.13464503832E+03  0.14034876399E+03  0.00000000000E+00 0.  1.
         14    1    5    5    0    0  0.81084565332E+01 -0.31903745420E+02  0.74399363206E+03  0.74472150539E+03  0.00000000000E+00 0. -1.
          5    1    4    4  501    0 -0.33396142821E+02  0.89394947767E+02  0.10454851389E+03  0.14163064922E+03  0.47000000000E+01 0. -1.
         -5    1    4    4    0  501  0.18107176564E+02 -0.32836118758E+02  0.13883001295E+02  0.40260505004E+02  0.47000000000E+01 0. -1.
          1    1    1    2  502    0 -0.56353037077E+02  0.22939771921E+02  0.84142431734E+03  0.84362123002E+03  0.00000000000E+00 0. -1.
          1    1    1    2  503    0 -0.54772018170E+02  0.62998139925E+01 -0.95247410918E+03  0.95406844109E+03  0.00000000000E+00 0. -1.
<mgrwt>
<rscale>  0 0.58381514E+02</rscale>
<asrwt>0</asrwt>
<pdfrwt beam="1">  1        2 0.30054420E+00 0.61821293E+02</pdfrwt>
<pdfrwt beam="2">  1        2 0.14896318E+00 0.55133126E+02</pdfrwt>
<totfact> 0.42596345E+01</totfact>
</mgrwt>
</event>
<event>
13    1  0.1595792E-008  0.1761175E+03  0.7546771E-02  0.1225440E+00
          2   -1    0    0  503    0  0.00000000000E+00  0.00000000000E+00  0.29178521495E+04  0.29178521495E+04  0.00000000000E+00 0. -1.
          2   -1    0    0  502    0 -0.00000000000E+00 -0.00000000000E+00 -0.31819290516E+04  0.31819290516E+04  0.00000000000E+00 0. -1.
         24    2    1    2    0    0  0.31990134355E+02  0.38039103760E+02  0.16243717370E+02  0.95158050763E+02  0.79503799658E+02 0.  0.
         25    2    1    2    0    0  0.19238587020E+03 -0.16523610127E+03  0.12028598548E+04  0.12356431832E+04  0.12500781426E+03 0.  0.
         24    2    1    2    0    0 -0.12453681295E+02  0.35945813774E+02  0.32060071192E+02  0.94238948824E+02  0.80037088934E+02 0.  0.
        -11    1    3    3    0    0  0.46436802364E+02  0.17825224235E+02  0.37633831349E+02  0.62373235405E+02  0.00000000000E+00 0.  1.
         12    1    3    3    0    0 -0.14446668009E+02  0.20213879525E+02 -0.21390113979E+02  0.32784815358E+02  0.00000000000E+00 0. -1.
        -11    1    5    5    0    0 -0.46477265258E+02  0.25554357837E+02  0.19603455720E+02  0.56546059691E+02  0.00000000000E+00 0.  1.
         12    1    5    5    0    0  0.34023583964E+02  0.10391455937E+02  0.12456615472E+02  0.37692889134E+02  0.00000000000E+00 0. -1.
          5    1    4    4  501    0  0.11923616634E+03 -0.16906749855E+03  0.81222953105E+03  0.83817658255E+03  0.47000000000E+01 0. -1.
         -5    1    4    4    0  501  0.73149703856E+02  0.38313972742E+01  0.39063032379E+03  0.39746660066E+03  0.47000000000E+01 0. -1.
          1    1    1    2  502    0 -0.25090997515E+03  0.21468185050E+03 -0.30835086410E+04  0.31011400568E+04  0.00000000000E+00 0. -1.
          1    1    1    2  503    0  0.38987651893E+02 -0.12343066676E+03  0.15682680955E+04  0.15736009615E+04  0.00000000000E+00 0. -1.
<mgrwt>
<rscale>  0 0.13136772E+03</rscale>
<asrwt>0</asrwt>
<pdfrwt beam="1">  1        2 0.42909591E+00 0.97988413E+02</pdfrwt>
<pdfrwt beam="2">  1        2 0.46793074E+00 0.17611753E+03</pdfrwt>
<totfact> 0.10540029E+00</totfact>
</mgrwt>
</event>
<event>
13    1  0.1595792E-008  0.1069894E+03  0.7546771E-02  0.1437577E+00
          2   -1    0    0  503    0  0.00000000000E+00  0.00000000000E+00  0.30204651187E+04  0.30204651187E+04  0.00000000000E+00 0. -1.
          2   -1    0    0  502    0 -0.00000000000E+00 -0.00000000000E+00 -0.17917107946E+04  0.17917107946E+04  0.00000000000E+00 0. -1.
         24    2    1    2    0    0 -0.23218055752E+03  0.23837026116E+03 -0.77519790873E+03  0.84828511818E+03  0.89037359167E+02 0.  0.
         25    2    1    2    0    0  0.42774744122E+03 -0.40133023719E+03  0.40791553161E+03  0.72529588741E+03  0.12500084246E+03 0.  0.
         24    2    1    2    0    0 -0.30061492119E+03  0.17992899710E+03  0.11593490122E+03  0.37765388945E+03  0.80235802811E+02 0.  0.
        -11    1    3    3    0    0 -0.12076337993E+03  0.76003105426E+02 -0.25735221361E+03  0.29426251514E+03  0.00000000000E+00 0.  1.
         12    1    3    3    0    0 -0.11141717759E+03  0.16236715573E+03 -0.51784569512E+03  0.55402260304E+03  0.00000000000E+00 0. -1.
        -13    1    5    5    0    0 -0.16382475590E+03  0.87419115645E+02  0.20226131726E+02  0.18678797828E+03  0.00000000000E+00 0.  1.
         14    1    5    5    0    0 -0.13679016530E+03  0.92509881459E+02  0.95708769491E+02  0.19086591117E+03  0.00000000000E+00 0. -1.
          5    1    4    4  501    0  0.17679956872E+03 -0.12498760042E+03  0.88392671207E+02  0.23391310797E+03  0.47000000000E+01 0. -1.
         -5    1    4    4    0  501  0.25094787250E+03 -0.27634263677E+03  0.31952286040E+03  0.49138277944E+03  0.47000000000E+01 0. -1.
          1    1    1    2  502    0 -0.16655595816E+01 -0.24703560388E+02 -0.68887853550E+03  0.68932334696E+03  0.00000000000E+00 0. -1.
          1    1    1    2  503    0  0.10671359708E+03  0.77345393148E+01  0.21689803354E+04  0.21716176713E+04  0.00000000000E+00 0. -1.
<mgrwt>
<rscale>  0 0.51468628E+02</rscale>
<asrwt>0</asrwt>
<pdfrwt beam="1">  1        2 0.44418604E+00 0.10698941E+03</pdfrwt>
<pdfrwt beam="2">  1        2 0.26348688E+00 0.24759644E+02</pdfrwt>
<totfact> 0.57782224E+00</totfact>
</mgrwt>
</event>
<event>
13    1  0.1595792E-008  0.8133397E+02  0.7546771E-02  0.1370473E+00
          2   -1    0    0  502    0  0.00000000000E+00  0.00000000000E+00  0.17981033525E+04  0.17981033525E+04  0.00000000000E+00 0. -1.
          2   -1    0    0  503    0 -0.00000000000E+00 -0.00000000000E+00 -0.50752608956E+03  0.50752608956E+03  0.00000000000E+00 0. -1.
         24    2    1    2    0    0 -0.19761505550E+02 -0.59147433013E+02 -0.83619205611E+02  0.13112437949E+03  0.79451214059E+02 0.  0.
         25    2    1    2    0    0 -0.24994312989E+02  0.25483156840E+02 -0.12458612029E+03  0.18007223307E+03  0.12502080143E+03 0.  0.
         24    2    1    2    0    0 -0.65591557973E+01  0.32433039371E+02  0.47565121875E+02  0.97727399347E+02  0.78697390023E+02 0.  0.
        -11    1    5    5    0    0  0.33645186013E+02  0.12236916698E+01  0.25595093391E+02  0.42291899566E+02  0.00000000000E+00 0.  1.
         12    1    5    5    0    0 -0.40204341811E+02  0.31209347702E+02  0.21970028484E+02  0.55435499781E+02  0.00000000000E+00 0. -1.
        -13    1    3    3    0    0 -0.33349104069E+02 -0.56339480789E+02 -0.93463018209E+02  0.11411238150E+03  0.00000000000E+00 0.  1.
         14    1    3    3    0    0  0.13587598519E+02 -0.28079522233E+01  0.98438125987E+01  0.17011997992E+02  0.00000000000E+00 0. -1.
          5    1    4    4  501    0 -0.48258273329E+02 -0.38362894902E+02 -0.56246245871E+02  0.83584106292E+02  0.47000000000E+01 0.  1.
         -5    1    4    4    0  501  0.23263960341E+02  0.63846051742E+02 -0.68339874419E+02  0.96488126780E+02  0.47000000000E+01 0.  1.
          1    1    1    2  502    0  0.61894737273E+02 -0.52997732103E+02  0.16695261781E+04  0.16715134991E+04  0.00000000000E+00 0. -1.
          1    1    1    2  503    0 -0.10579762937E+02  0.54228968904E+02 -0.21830871116E+03  0.22519193108E+03  0.00000000000E+00 0. -1.
<mgrwt>
<rscale>  0 0.67035903E+02</rscale>
<asrwt>0</asrwt>
<pdfrwt beam="1">  1        2 0.26442696E+00 0.81333972E+02</pdfrwt>
<pdfrwt beam="2">  1        2 0.74636190E-01 0.55251357E+02</pdfrwt>
<totfact> 0.11944694E+02</totfact>
</mgrwt>
</event>
<event>
13    1  0.1595792E-008  0.1003609E+03  0.7546771E-02  0.1440634E+00
          2   -1    0    0  503    0  0.00000000000E+00  0.00000000000E+00  0.22010230155E+04  0.22010230155E+04  0.00000000000E+00 0. -1.
          2   -1    0    0  502    0 -0.00000000000E+00 -0.00000000000E+00 -0.28179472827E+04  0.28179472827E+04  0.00000000000E+00 0. -1.
         24    2    1    2    0    0  0.93142435063E+02  0.59488751554E+02 -0.40112813021E+03  0.42419594439E+03  0.82607491312E+02 0.  0.
         25    2    1    2    0    0 -0.15870867729E+03 -0.19569864143E+03 -0.16303562313E+03  0.32508196482E+03  0.12494505568E+03 0.  0.
         24    2    1    2    0    0 -0.94942538558E+01  0.11220874182E+03  0.83214163486E+03  0.84334038360E+03  0.77989483634E+02 0.  0.
        -11    1    3    3    0    0  0.79818057836E+02  0.30411876696E+01 -0.22417299993E+03  0.23797837102E+03  0.00000000000E+00 0.  1.
         12    1    3    3    0    0  0.13324377226E+02  0.56447563884E+02 -0.17695513028E+03  0.18621757337E+03  0.00000000000E+00 0. -1.
        -13    1    5    5    0    0 -0.38912200593E+02  0.29729372106E+02  0.33165261320E+03  0.33524834192E+03  0.00000000000E+00 0.  1.
         14    1    5    5    0    0  0.29417946737E+02  0.82479369716E+02  0.50048902166E+03  0.50809204168E+03  0.00000000000E+00 0. -1.
          5    1    4    4  501    0 -0.74150071279E+02 -0.53388773014E+02  0.16851585153E+01  0.91506961013E+02  0.47000000000E+01 0.  1.
         -5    1    4    4    0  501 -0.84558606010E+02 -0.14230986841E+03 -0.16472078165E+03  0.23357500381E+03  0.47000000000E+01 0.  1.
          1    1    1    2  502    0  0.99255068932E+02  0.15047659575E+02 -0.21543271464E+04  0.21566648915E+04  0.00000000000E+00 0. -1.
          1    1    1    2  503    0 -0.24194572850E+02  0.89534884776E+01  0.12694249976E+04  0.12696871138E+04  0.00000000000E+00 0. -1.
<mgrwt>
<rscale>  0 0.50883411E+02</rscale>
<asrwt>0</asrwt>
<pdfrwt beam="1">  1        2 0.32367986E+00 0.25798107E+02</pdfrwt>
<pdfrwt beam="2">  1        2 0.41440401E+00 0.10036091E+03</pdfrwt>
<totfact> 0.48696841E+00</totfact>
</mgrwt>
</event>
<event>
13    1  0.1595792E-008  0.1106813E+03  0.7546771E-02  0.1428003E+00
          2   -1    0    0  503    0  0.00000000000E+00  0.00000000000E+00  0.26129710740E+04  0.26129710740E+04  0.00000000000E+00 0. -1.
         -3   -1    0    0    0  501 -0.00000000000E+00 -0.00000000000E+00 -0.14281590611E+04  0.14281590611E+04  0.00000000000E+00 0.  1.
         24    2    1    2    0    0  0.14652129133E+02  0.40656429408E+02 -0.24377852575E+02  0.94315625859E+02  0.80209272810E+02 0.  0.
         25    2    1    2    0    0 -0.92538603993E+03 -0.47441277731E+03  0.93809872946E+03  0.14060798408E+04  0.12499794497E+03 0.  0.
         24    2    1    2    0    0  0.10323622568E+04  0.37267385031E+03  0.11136799351E+03  0.11077790330E+04  0.10056802648E+03 0.  0.
        -13    1    5    5    0    0  0.15455362795E+03  0.19118448591E+02  0.10535500928E+02  0.15608759006E+03  0.00000000000E+00 0.  1.
         14    1    5    5    0    0  0.87780862888E+03  0.35355540172E+03  0.10083249258E+03  0.95169144295E+03  0.00000000000E+00 0. -1.
        -13    1    3    3    0    0 -0.21947199551E+02 -0.49890390185E+01 -0.27728357935E+02  0.35713189611E+02  0.00000000000E+00 0.  1.
         14    1    3    3    0    0  0.36599328684E+02  0.45645468427E+02  0.33505053595E+01  0.58602436248E+02  0.00000000000E+00 0. -1.
          5    1    4    4  502    0 -0.87707263796E+03 -0.41453339547E+03  0.87603556959E+03  0.13071169639E+04  0.47000000000E+01 0.  1.
         -5    1    4    4    0  502 -0.48313401972E+02 -0.59879381840E+02  0.62063159864E+02  0.98962876837E+02  0.47000000000E+01 0.  1.
          1    1    1    2  503    0 -0.99864337304E+02  0.47361735381E+02  0.79224155744E+03  0.79991418613E+03  0.00000000000E+00 0. -1.
         -4    1    1    2    0  501 -0.21764008737E+02  0.13720762211E+02 -0.63251841495E+03  0.63304144938E+03  0.00000000000E+00 0.  1.
<mgrwt>
<rscale>  0 0.53363018E+02</rscale>
<asrwt>0</asrwt>
<pdfrwt beam="1">  1        2 0.38426045E+00 0.11068131E+03</pdfrwt>
<pdfrwt beam="2">  1       -3 0.21002339E+00 0.25728027E+02</pdfrwt>
<totfact> 0.41629204E-01</totfact>
</mgrwt>
</event>
<event>
13    1  0.1595792E-008  0.9436831E+02  0.7546771E-02  0.1406398E+00
          2   -1    0    0  502    0  0.00000000000E+00  0.00000000000E+00  0.18666836764E+04  0.18666836764E+04  0.00000000000E+00 0. -1.
          2   -1    0    0  503    0 -0.00000000000E+00 -0.00000000000E+00 -0.32031718410E+04  0.32031718410E+04  0.00000000000E+00 0. -1.
         24    2    1    2    0    0 -0.51859432792E+02  0.40289950018E+01 -0.21273784364E+03  0.23291140452E+03  0.79276091386E+02 0.  0.
         25    2    1    2    0    0  0.58385386634E+02 -0.19578354622E+03 -0.89294927876E+03  0.92451429719E+03  0.12501288308E+03 0.  0.
         24    2    1    2    0    0 -0.32392550378E+02  0.10293731623E+03  0.14819122885E+04  0.14888425608E+04  0.94566229084E+02 0.  0.
        -11    1    3    3    0    0 -0.39588177099E+02  0.16712561425E+02 -0.38237107777E+02  0.57520517092E+02  0.00000000000E+00 0.  1.
         12    1    3    3    0    0 -0.12271255694E+02 -0.12683566423E+02 -0.17450073587E+03  0.17539088742E+03  0.00000000000E+00 0. -1.
        -11    1    5    5    0    0 -0.53403888048E+01 -0.14752628901E+02  0.38180857784E+03  0.38213080212E+03  0.00000000000E+00 0.  1.
         12    1    5    5    0    0 -0.27052161573E+02  0.11768994513E+03  0.11001037106E+04  0.11067117587E+04  0.00000000000E+00 0. -1.
          5    1    4    4  501    0  0.86769742264E+02 -0.16832273716E+03 -0.81820372211E+03  0.83984579114E+03  0.47000000000E+01 0. -1.
         -5    1    4    4    0  501 -0.28384355630E+02 -0.27460809061E+02 -0.74745556644E+02  0.84668506051E+02  0.47000000000E+01 0. -1.
          1    1    1    2  502    0  0.58385840026E+02  0.74198246495E+02  0.34901016000E+03  0.36155549765E+03  0.00000000000E+00 0. -1.
          1    1    1    2  503    0 -0.32519243490E+02  0.14618988493E+02 -0.20617234906E+04  0.20620317572E+04  0.00000000000E+00 0. -1.
<mgrwt>
<rscale>  0 0.58005332E+02</rscale>
<asrwt>0</asrwt>
<pdfrwt beam="1">  1        2 0.27451231E+00 0.94368307E+02</pdfrwt>
<pdfrwt beam="2">  1        2 0.47105468E+00 0.35654116E+02</pdfrwt>
<totfact> 0.44807321E+00</totfact>
</mgrwt>
</event>
<event>
13    1  0.1595792E-008  0.1499211E+03  0.7546771E-02  0.1254019E+00
          2   -1    0    0  502    0  0.00000000000E+00  0.00000000000E+00  0.14355437406E+04  0.14355437406E+04  0.00000000000E+00 0. -1.
          2   -1    0    0  503    0 -0.00000000000E+00 -0.00000000000E+00 -0.39378042852E+03  0.39378042852E+03  0.00000000000E+00 0. -1.
         24    2    1    2    0    0  0.30179424140E+02  0.45054019814E+02  0.12590073359E+03  0.15887062380E+03  0.80300797297E+02 0.  0.
         25    2    1    2    0    0 -0.14338113263E+02  0.86591375024E+02  0.18951475683E+03  0.24339797331E+03  0.12499233030E+03 0.  0.
         24    2    1    2    0    0 -0.26673356645E+02  0.69667203579E+02  0.21439900963E+03  0.24169039106E+03  0.82959764887E+02 0.  0.
        -13    1    3    3    0    0 -0.96402320199E+01 -0.14177946485E+02  0.57545204899E+02  0.60044973535E+02  0.00000000000E+00 0.  1.
         14    1    3    3    0    0  0.39819656160E+02  0.59231966299E+02  0.68355528687E+02  0.98825650266E+02  0.00000000000E+00 0. -1.
        -13    1    5    5    0    0  0.13639776447E+02 -0.16523499303E+01  0.18051050679E+01  0.13857567107E+02  0.00000000000E+00 0.  1.
         14    1    5    5    0    0 -0.40313133092E+02  0.71319553509E+02  0.21259390456E+03  0.22783282395E+03  0.00000000000E+00 0. -1.
          5    1    4    4  501    0  0.51354104550E+02  0.58305591642E+02  0.12331734663E+03  0.14582881763E+03  0.47000000000E+01 0. -1.
         -5    1    4    4    0  501 -0.65692217812E+02  0.28285783383E+02  0.66197410201E+02  0.97569155679E+02  0.47000000000E+01 0. -1.
          1    1    1    2  502    0  0.66007120355E+02 -0.55283963012E+02  0.82821125378E+03  0.83267468881E+03  0.00000000000E+00 0. -1.
          1    1    1    2  503    0 -0.55175074587E+02 -0.14602863540E+03 -0.31626244173E+03  0.35269049216E+03  0.00000000000E+00 0. -1.
<mgrwt>
<rscale>  0 0.11361447E+03</rscale>
<asrwt>0</asrwt>
<pdfrwt beam="1">  1        2 0.21110937E+00 0.86100270E+02</pdfrwt>
<pdfrwt beam="2">  1        2 0.57908887E-01 0.14992111E+03</pdfrwt>
<totfact> 0.23153201E+02</totfact>
</mgrwt>
</event>
<event>
13    1  0.1595792E-008  0.2875296E+02  0.7546771E-02  0.1619607E+00
          2   -1    0    0  503    0  0.00000000000E+00  0.00000000000E+00  0.22175663321E+04  0.22175663321E+04  0.00000000000E+00 0. -1.
          2   -1    0    0  502    0 -0.00000000000E+00 -0.00000000000E+00 -0.24167471635E+04  0.24167471635E+04  0.00000000000E+00 0. -1.
         24    2    1    2    0    0  0.10336333149E+03  0.65673966253E+03 -0.44186394112E+03  0.80120393548E+03  0.68505774468E+02 0.  0.
         25    2    1    2    0    0 -0.58125401040E+03 -0.34088986353E+03 -0.31439433383E+03  0.75400975384E+03  0.12499915237E+03 0.  0.
         24    2    1    2    0    0  0.47501512316E+03 -0.31288469295E+03  0.10580721560E+03  0.58421548141E+03  0.81094781189E+02 0.  0.
        -11    1    5    5    0    0  0.10692486425E+03 -0.34603277348E+02  0.91505389624E+01  0.11275657746E+03  0.00000000000E+00 0.  1.
         12    1    5    5    0    0  0.36809025891E+03 -0.27828141560E+03  0.96656676634E+02  0.47145890395E+03  0.00000000000E+00 0. -1.
        -13    1    3    3    0    0  0.21891060859E+02  0.15369776204E+03 -0.13911830157E+03  0.20846132119E+03  0.00000000000E+00 0.  1.
         14    1    3    3    0    0  0.81472270628E+02  0.50304190049E+03 -0.30274563955E+03  0.59274261429E+03  0.00000000000E+00 0. -1.
          5    1    4    4  501    0 -0.42925734953E+03 -0.30560264326E+03 -0.26779614744E+03  0.59109365948E+03  0.47000000000E+01 0. -1.
         -5    1    4    4    0  501 -0.15199666087E+03 -0.35287220272E+02 -0.46598186384E+02  0.16291609437E+03  0.47000000000E+01 0. -1.
          1    1    1    2  502    0  0.14930729761E+02  0.23141656632E+02 -0.10214811024E+04  0.10218522914E+04  0.00000000000E+00 0. -1.
          1    1    1    2  503    0 -0.12055174010E+02 -0.26106762683E+02  0.14727513303E+04  0.14730320334E+04  0.00000000000E+00 0. -1.
<mgrwt>
<rscale>  0 0.28140049E+02</rscale>
<asrwt>0</asrwt>
<pdfrwt beam="1">  1        2 0.32611270E+00 0.28752957E+02</pdfrwt>
<pdfrwt beam="2">  1        2 0.35540399E+00 0.27540206E+02</pdfrwt>
<totfact> 0.89646363E+00</totfact>
</mgrwt>
</event>
<event>
13    1  0.1595792E-008  0.1228198E+03  0.7546771E-02  0.1399224E+00
          2   -1    0    0  503    0  0.00000000000E+00  0.00000000000E+00  0.95602893982E+03  0.95602893982E+03  0.00000000000E+00 0. -1.
          2   -1    0    0  502    0 -0.00000000000E+00 -0.00000000000E+00 -0.32188729298E+04  0.32188729298E+04  0.00000000000E+00 0. -1.
         24    2    1    2    0    0 -0.21879476690E+03 -0.22507899748E+03 -0.11172135826E+04  0.11633225458E+04  0.81372300101E+02 0.  0.
         25    2    1    2    0    0  0.53597337723E+01 -0.30234807905E+03 -0.17511528239E+03  0.37112327371E+03  0.12499613800E+03 0.  0.
         24    2    1    2    0    0  0.16892337363E+03  0.61021545610E+03 -0.19220650943E+03  0.66585145949E+03  0.74275263790E+02 0.  0.
        -11    1    5    5    0    0  0.16778628944E+03  0.55553478426E+03 -0.19167953275E+03  0.61115642738E+03  0.00000000000E+00 0.  1.
         12    1    5    5    0    0  0.11370841983E+01  0.54680671840E+02 -0.52697667608E+00  0.54695032112E+02  0.00000000000E+00 0. -1.
        -13    1    3    3    0    0 -0.14450067760E+03 -0.10453010427E+03 -0.52698970877E+03  0.55634983749E+03  0.00000000000E+00 0.  1.
         14    1    3    3    0    0 -0.74294089302E+02 -0.12054889321E+03 -0.59022387383E+03  0.60697270828E+03  0.00000000000E+00 0. -1.
          5    1    4    4  501    0  0.31992295445E+02 -0.21688619727E+03 -0.17647237707E+03  0.28147418959E+03  0.47000000000E+01 0.  1.
         -5    1    4    4    0  501 -0.26632561672E+02 -0.85461881773E+02  0.13570946884E+01  0.89649084119E+02  0.47000000000E+01 0.  1.
          1    1    1    2  502    0 -0.11713273778E+02  0.26517457517E+02 -0.13699867336E+04  0.13702934089E+04  0.00000000000E+00 0. -1.
          1    1    1    2  503    0  0.56224933276E+02 -0.10930583710E+03  0.59167811796E+03  0.60431118178E+03  0.00000000000E+00 0. -1.
<mgrwt>
<rscale>  0 0.59669543E+02</rscale>
<asrwt>0</asrwt>
<pdfrwt beam="1">  1        2 0.14059249E+00 0.12281984E+03</pdfrwt>
<pdfrwt beam="2">  1        2 0.47336366E+00 0.28989245E+02</pdfrwt>
<totfact> 0.13225688E+01</totfact>
</mgrwt>
</event>
<event>
13    1  0.2167445E-008  0.4071727E+02  0.7546771E-02  0.1547151E+00
          2   -1    0    0  502    0  0.00000000000E+00  0.00000000000E+00  0.18962729009E+04  0.18962729009E+04  0.00000000000E+00 0. -1.
          2   -1    0    0  503    0 -0.00000000000E+00 -0.00000000000E+00 -0.25398214137E+04  0.25398214137E+04  0.00000000000E+00 0. -1.
         24    2    1    2    0    0  0.18838305186E+03 -0.20519153876E+03 -0.54177598055E+03  0.61898329442E+03  0.10966933877E+03 0.  0.
         25    2    1    2    0    0  0.22194788614E+03  0.58214217810E+03 -0.10607114914E+03  0.64422344512E+03  0.12498951506E+03 0.  0.
         24    2    1    2    0    0 -0.34261121596E+03 -0.35738639192E+03  0.77127623984E+03  0.92010228784E+03  0.81324679584E+02 0.  0.
        -11    1    5    5    0    0 -0.26720283955E+03 -0.23020146323E+03  0.57136248974E+03  0.67145004715E+03  0.00000000000E+00 0.  1.
         12    1    5    5    0    0 -0.75408376416E+02 -0.12718492870E+03  0.19991375009E+03  0.24865224068E+03  0.00000000000E+00 0. -1.
        -13    1    3    3    0    0  0.16645581219E+03 -0.10514793006E+03 -0.36229420896E+03  0.41233568661E+03  0.00000000000E+00 0.  1.
         14    1    3    3    0    0  0.21927239674E+02 -0.10004360870E+03 -0.17948177159E+03  0.20664760782E+03  0.00000000000E+00 0. -1.
          5    1    4    4  501    0  0.70212404982E+02  0.34752679152E+03 -0.80553817101E+02  0.36361471379E+03  0.47000000000E+01 0.  1.
         -5    1    4    4    0  501  0.15173548116E+03  0.23461538658E+03 -0.25517332043E+02  0.28060873133E+03  0.47000000000E+01 0.  1.
          1    1    1    2  502    0 -0.40108312158E+02 -0.69228546474E+01  0.74219349241E+03  0.74330867262E+03  0.00000000000E+00 0. -1.
          1    1    1    2  503    0 -0.27611409881E+02 -0.12641392765E+02 -0.15091711153E+04  0.15094766146E+04  0.00000000000E+00 0. -1.
<mgrwt>
<rscale>  0 0.35163734E+02</rscale>
<asrwt>0</asrwt>
<pdfrwt beam="1">  1        2 0.27886366E+00 0.40717270E+02</pdfrwt>
<pdfrwt beam="2">  1        2 0.37350315E+00 0.30367660E+02</pdfrwt>
<totfact> 0.10394916E+01</totfact>
</mgrwt>
</event>
<event>
13    1  0.1595792E-008  0.1975485E+03  0.7546771E-02  0.1364774E+00
          2   -1    0    0  503    0  0.00000000000E+00  0.00000000000E+00  0.46662180972E+04  0.46662180972E+04  0.00000000000E+00 0. -1.
          2   -1    0    0  502    0 -0.00000000000E+00 -0.00000000000E+00 -0.17184406047E+04  0.17184406047E+04  0.00000000000E+00 0. -1.
         24    2    1    2    0    0  0.44671595572E+02 -0.79023669178E+02  0.99013284529E+02  0.15595398586E+03  0.79232086004E+02 0.  0.
         25    2    1    2    0    0 -0.10136081023E+03  0.21711226462E+03  0.14064793548E+04  0.14322090797E+04  0.12500769319E+03 0.  0.
         24    2    1    2    0    0 -0.77499115212E+02 -0.25324049808E+02  0.35041444577E+03  0.36921037154E+03  0.82937291314E+02 0.  0.
        -11    1    3    3    0    0  0.91517045013E+01  0.14585722558E+02  0.34806883919E+01  0.17567361484E+02  0.00000000000E+00 0.  1.
         12    1    3    3    0    0  0.35519891070E+02 -0.93609391736E+02  0.95532596137E+02  0.13838662438E+03  0.00000000000E+00 0. -1.
        -13    1    5    5    0    0 -0.44026432166E+02  0.28496414815E+02  0.14216918509E+03  0.15153365822E+03  0.00000000000E+00 0.  1.
         14    1    5    5    0    0 -0.33472683046E+02 -0.53820464623E+02  0.20824526068E+03  0.21767671332E+03  0.00000000000E+00 0. -1.
          5    1    4    4  501    0  0.43621476398E+01  0.65994086089E+02  0.65782747745E+03  0.66116059155E+03  0.47000000000E+01 0. -1.
         -5    1    4    4    0  501 -0.10572295787E+03  0.15111817853E+03  0.74865187731E+03  0.77104848817E+03  0.47000000000E+01 0. -1.
          1    1    1    2  502    0  0.14498917084E+03 -0.13402962371E+03 -0.16618113826E+04  0.16735001856E+04  0.00000000000E+00 0. -1.
          1    1    1    2  503    0 -0.10800840975E+02  0.21265078069E+02  0.27536817901E+04  0.27537850793E+04  0.00000000000E+00 0. -1.
<mgrwt>
<rscale>  0 0.68641775E+02</rscale>
<asrwt>0</asrwt>
<pdfrwt beam="1">  1        2 0.68620854E+00 0.23850822E+02</pdfrwt>
<pdfrwt beam="2">  1        2 0.25271186E+00 0.19754847E+03</pdfrwt>
<totfact> 0.63850664E-01</totfact>
</mgrwt>
</event>
<event>
13    1  0.1595792E-008  0.5303102E+02  0.7546771E-02  0.1445466E+00
          4   -1    0    0  503    0  0.00000000000E+00  0.00000000000E+00  0.69251744485E+03  0.69251744485E+03  0.00000000000E+00 0. -1.
         -3   -1    0    0    0  501 -0.00000000000E+00 -0.00000000000E+00 -0.85856869611E+03  0.85856869611E+03  0.00000000000E+00 0.  1.
         24    2    1    2    0    0 -0.28910018952E+03  0.13002853587E+03  0.87596513051E+01  0.32710024288E+03  0.80196618860E+02 0.  0.
         25    2    1    2    0    0  0.29641171479E+03 -0.43368631417E+02  0.50857276145E+02  0.32856138347E+03  0.12500150926E+03 0.  0.
         24    2    1    2    0    0  0.81807703784E+02 -0.93102935041E+02  0.15932871935E+03  0.21727698206E+03  0.80392718662E+02 0.  0.
        -11    1    5    5    0    0  0.44351406115E+02 -0.91483627184E+01  0.94488593414E+02  0.10477993152E+03  0.00000000000E+00 0.  1.
         12    1    5    5    0    0  0.37456297669E+02 -0.83954572322E+02  0.64840125933E+02  0.11249705054E+03  0.00000000000E+00 0. -1.
        -13    1    3    3    0    0 -0.20039989734E+02  0.24878608554E+02 -0.18540118909E+02  0.36936193108E+02  0.00000000000E+00 0.  1.
         14    1    3    3    0    0 -0.26906019979E+03  0.10514992732E+03  0.27299770214E+02  0.29016404977E+03  0.00000000000E+00 0. -1.
          5    1    4    4  502    0  0.15453303437E+03  0.39294856246E+02  0.13455628027E+02  0.16008650275E+03  0.47000000000E+01 0. -1.
         -5    1    4    4    0  502  0.14187868042E+03 -0.82663487663E+02  0.37401648117E+02  0.16847488071E+03  0.47000000000E+01 0. -1.
          3    1    1    2  503    0 -0.46039409321E+02  0.25480182875E+02  0.14076586828E+03  0.15027939514E+03  0.00000000000E+00 0. -1.
         -4    1    1    2    0  501 -0.43079819726E+02 -0.19037152291E+02 -0.52576276633E+03  0.52786813741E+03  0.00000000000E+00 0.  1.
<mgrwt>
<rscale>  0 0.49976895E+02</rscale>
<asrwt>0</asrwt>
<pdfrwt beam="1">  1        4 0.10184080E+00 0.53031019E+02</pdfrwt>
<pdfrwt beam="2">  1       -3 0.12626010E+00 0.47098663E+02</pdfrwt>
<totfact> 0.84033504E-01</totfact>
</mgrwt>
</event>
<event>
13    1  0.1595792E-008  0.1390703E+03  0.7546771E-02  0.1418072E+00
          2   -1    0    0  503    0  0.00000000000E+00  0.00000000000E+00  0.17115173839E+04  0.17115173839E+04  0.00000000000E+00 0. -1.
          2   -1    0    0  502    0 -0.00000000000E+00 -0.00000000000E+00 -0.68926873515E+03  0.68926873515E+03  0.00000000000E+00 0. -1.
         24    2    1    2    0    0 -0.12647950103E+03 -0.44946638253E+02 -0.74875549687E+02  0.17346937564E+03  0.80423950867E+02 0.  0.
         25    2    1    2    0    0  0.18551382861E+02  0.12386343220E+03  0.19601429694E+03  0.26406094373E+03  0.12498109359E+03 0.  0.
         24    2    1    2    0    0 -0.63357507176E+02 -0.37522163745E+02  0.39676171087E+03  0.41163624160E+03  0.81255484120E+02 0.  0.
        -11    1    3    3    0    0 -0.13541950221E+03 -0.49155856099E+02 -0.77015600809E+02  0.16335893773E+03  0.00000000000E+00 0.  1.
         12    1    3    3    0    0  0.89400011800E+01  0.42092178461E+01  0.21400511219E+01  0.10110437912E+02  0.00000000000E+00 0. -1.
        -13    1    5    5    0    0 -0.56922042417E+02 -0.14936417648E+02  0.37509537432E+03  0.37968375699E+03  0.00000000000E+00 0.  1.
         14    1    5    5    0    0 -0.64354647594E+01 -0.22585746097E+02  0.21666336550E+02  0.31952484613E+02  0.00000000000E+00 0. -1.
          5    1    4    4  501    0  0.27909313213E+02  0.12969645466E+02  0.13193220073E+03  0.13555566037E+03  0.47000000000E+01 0. -1.
         -5    1    4    4    0  501 -0.93579303520E+01  0.11089378674E+03  0.64082096207E+02  0.12850528336E+03  0.47000000000E+01 0. -1.
          1    1    1    2  502    0  0.17364399952E+03 -0.63362120306E+02 -0.50719890992E+03  0.53983120610E+03  0.00000000000E+00 0. -1.
          1    1    1    2  503    0 -0.23583741755E+01  0.21967490102E+02  0.10115471006E+04  0.10117883520E+04  0.00000000000E+00 0. -1.
<mgrwt>
<rscale>  0 0.55430853E+02</rscale>
<asrwt>0</asrwt>
<pdfrwt beam="1">  1        2 0.25169373E+00 0.22093722E+02</pdfrwt>
<pdfrwt beam="2">  1        2 0.10136305E+00 0.13907025E+03</pdfrwt>
<totfact> 0.10455731E+02</totfact>
</mgrwt>
</event>
<event>
13    1  0.1595792E-008  0.8500651E+02  0.7546771E-02  0.1363286E+00
          2   -1    0    0  503    0  0.00000000000E+00  0.00000000000E+00  0.21538623821E+04  0.21538623821E+04  0.00000000000E+00 0. -1.
          2   -1    0    0  502    0 -0.00000000000E+00 -0.00000000000E+00 -0.21267078432E+03  0.21267078432E+03  0.00000000000E+00 0. -1.
         24    2    1    2    0    0 -0.15251031229E+01 -0.18874670069E+02  0.18654488450E+03  0.20444356706E+03  0.81483734996E+02 0.  0.
         25    2    1    2    0    0  0.11571055280E+03  0.25595985909E+02  0.59998519268E+03  0.62422090826E+03  0.12500169741E+03 0.  0.
         24    2    1    2    0    0 -0.22285307363E+02  0.56133153285E+02  0.48568859756E+03  0.49493858927E+03  0.73642566003E+02 0.  0.
        -11    1    5    5    0    0 -0.47609859586E+02  0.48874674449E+02  0.37513252129E+03  0.38128708484E+03  0.00000000000E+00 0.  1.
         12    1    5    5    0    0  0.25324552224E+02  0.72584788352E+01  0.11055607627E+03  0.11365150444E+03  0.00000000000E+00 0. -1.
        -13    1    3    3    0    0 -0.37923330648E+02  0.64743801910E+01  0.72469458923E+02  0.82048272882E+02  0.00000000000E+00 0.  1.
         14    1    3    3    0    0  0.36398227526E+02 -0.25349050260E+02  0.11407542558E+03  0.12239529418E+03  0.00000000000E+00 0. -1.
          5    1    4    4  501    0  0.98321246034E+02  0.20214142474E+02  0.59674145229E+03  0.60514306561E+03  0.47000000000E+01 0.  1.
         -5    1    4    4    0  501  0.17389306767E+02  0.53818434351E+01  0.32437403914E+01  0.19077842654E+02  0.47000000000E+01 0.  1.
          1    1    1    2  502    0 -0.54733231877E+02  0.12399825870E+02 -0.18065266030E+03  0.18916888229E+03  0.00000000000E+00 0. -1.
          1    1    1    2  503    0 -0.37166910439E+02 -0.75254294994E+02  0.84962558337E+03  0.85376121958E+03  0.00000000000E+00 0. -1.
<mgrwt>
<rscale>  0 0.69069433E+02</rscale>
<asrwt>0</asrwt>
<pdfrwt beam="1">  1        2 0.31674446E+00 0.85006512E+02</pdfrwt>
<pdfrwt beam="2">  1        2 0.31275117E-01 0.56120249E+02</pdfrwt>
<totfact> 0.19751087E+02</totfact>
</mgrwt>
</event>
<event>
13    1  0.1595792E-008  0.9086465E+02  0.7546771E-02  0.1401771E+00
          2   -1    0    0  502    0  0.00000000000E+00  0.00000000000E+00  0.53436113175E+04  0.53436113175E+04  0.00000000000E+00 0. -1.
          2   -1    0    0  503    0 -0.00000000000E+00 -0.00000000000E+00 -0.40146503466E+03  0.40146503466E+03  0.00000000000E+00 0. -1.
         24    2    1    2    0    0 -0.93091449064E+02 -0.41350913472E+02 -0.23272883656E+03  0.26567234309E+03  0.77737806648E+02 0.  0.
         25    2    1    2    0    0  0.19435833611E+03 -0.15953330028E+01  0.58310160088E+03  0.62722393410E+03  0.12499871463E+03 0.  0.
         24    2    1    2    0    0  0.13264160966E+02  0.82059195408E+01  0.72942592568E+03  0.73230235423E+03  0.62938715202E+02 0.  0.
        -11    1    3    3    0    0 -0.10035744479E+01 -0.88454578641E+01  0.38736275261E+01  0.97084641787E+01  0.00000000000E+00 0.  1.
         12    1    3    3    0    0 -0.92087874616E+02 -0.32505455608E+02 -0.23660246409E+03  0.25596387891E+03  0.00000000000E+00 0. -1.
        -13    1    5    5    0    0  0.23284199839E+02  0.13455121144E+02  0.12916236437E+03  0.13193221978E+03  0.00000000000E+00 0.  1.
         14    1    5    5    0    0 -0.10020038874E+02 -0.52492016032E+01  0.60026356131E+03  0.60037013444E+03  0.00000000000E+00 0. -1.
          5    1    4    4  501    0  0.21031258636E+03  0.90476326720E+01  0.51691068756E+03  0.55815051066E+03  0.47000000000E+01 0.  1.
         -5    1    4    4    0  501 -0.15954250252E+02 -0.10642965675E+02  0.66190913325E+02  0.69073423443E+02  0.47000000000E+01 0.  1.
          1    1    1    2  502    0 -0.13169397637E+03  0.38652806572E+00  0.39871378538E+04  0.39893121861E+04  0.00000000000E+00 0. -1.
          1    1    1    2  503    0  0.17162928355E+02  0.34353798868E+02 -0.12479026097E+03  0.13056553465E+03  0.00000000000E+00 0. -1.
<mgrwt>
<rscale>  0 0.59071372E+02</rscale>
<asrwt>0</asrwt>
<pdfrwt beam="1">  1        2 0.78582515E+00 0.90864653E+02</pdfrwt>
<pdfrwt beam="2">  1        2 0.59038979E-01 0.38402469E+02</pdfrwt>
<totfact> 0.66237680E-01</totfact>
</mgrwt>
</event>
<event>
13    1  0.1595792E-008  0.1374173E+03  0.7546771E-02  0.1229607E+00
          2   -1    0    0  503    0  0.00000000000E+00  0.00000000000E+00  0.69931941236E+03  0.69931941236E+03  0.00000000000E+00 0. -1.
         -1   -1    0    0    0  501 -0.00000000000E+00 -0.00000000000E+00 -0.20546845006E+04  0.20546845006E+04  0.00000000000E+00 0.  1.
         24    2    1    2    0    0  0.15638217254E+02 -0.66034023498E+02 -0.15044319167E+03  0.18328424764E+03  0.79717723352E+02 0.  0.
         25    2    1    2    0    0  0.14700348987E+03  0.87809603018E+02  0.88501581822E+02  0.22973549036E+03  0.12500125252E+03 0.  0.
         24    2    1    2    0    0  0.65154583987E+02 -0.62037325518E+02  0.79126014581E+02  0.14515021572E+03  0.81938448651E+02 0.  0.
        -13    1    5    5    0    0  0.34741927443E+02 -0.96774587612E+00  0.67529279838E+02  0.75948282995E+02  0.00000000000E+00 0.  1.
         14    1    5    5    0    0  0.30412656545E+02 -0.61069579642E+02  0.11596734743E+02  0.69201932722E+02  0.00000000000E+00 0. -1.
        -13    1    3    3    0    0 -0.13677800068E+02  0.26021710066E+01  0.14965173164E+01  0.14003323632E+02  0.00000000000E+00 0.  1.
         14    1    3    3    0    0  0.29316017322E+02 -0.68636194505E+02 -0.15193970898E+03  0.16928092401E+03  0.00000000000E+00 0. -1.
          5    1    4    4  502    0  0.14670309646E+03  0.82065033105E+02  0.30065109748E+02  0.17082877098E+03  0.47000000000E+01 0. -1.
         -5    1    4    4    0  502  0.30039340586E+00  0.57445699125E+01  0.58436472074E+02  0.58906719380E+02  0.47000000000E+01 0. -1.
          1    1    1    2  503    0 -0.44200018323E+02 -0.11157570399E+03  0.39472841276E+03  0.41256914473E+03  0.00000000000E+00 0. -1.
         -2    1    1    2    0  501 -0.18359627279E+03  0.15183744999E+03 -0.17672779058E+04  0.17832648145E+04  0.00000000000E+00 0.  1.
<mgrwt>
<rscale>  0 0.12856052E+03</rscale>
<asrwt>0</asrwt>
<pdfrwt beam="1">  1        2 0.10284109E+00 0.12027460E+03</pdfrwt>
<pdfrwt beam="2">  1       -1 0.30215949E+00 0.13741728E+03</pdfrwt>
<totfact> 0.21315094E+00</totfact>
</mgrwt>
</event>
<event>
13    1  0.1595792E-008  0.7688672E+02  0.7546771E-02  0.1574046E+00
         -1   -1    0    0    0  501  0.00000000000E+00  0.00000000000E+00  0.14530425015E+04  0.14530425015E+04  0.00000000000E+00 0.  1.
         -1   -1    0    0    0  502 -0.00000000000E+00 -0.00000000000E+00 -0.24063867512E+04  0.24063867512E+04  0.00000000000E+00 0.  1.
         24    2    1    2    0    0  0.59609120928E+02 -0.91516428787E+02  0.85611637637E+01  0.13464602662E+03  0.78279977799E+02 0.  0.
         25    2    1    2    0    0 -0.18292556817E+03  0.21461312530E+02  0.81382820105E+02  0.23700230555E+03  0.12499831200E+03 0.  0.
         24    2    1    2    0    0  0.49312910246E+02  0.82053803608E+02  0.98386753944E+03  0.99181090311E+03  0.80801872325E+02 0.  0.
        -13    1    5    5    0    0  0.51849923165E+02  0.43980723574E+02  0.84698194126E+03  0.84970649486E+03  0.00000000000E+00 0.  1.
         14    1    5    5    0    0 -0.25370129189E+01  0.38073080034E+02  0.13688559817E+03  0.14210440825E+03  0.00000000000E+00 0. -1.
        -13    1    3    3    0    0  0.47461109535E+02 -0.98727249890E+02 -0.11462156203E+02  0.11014085443E+03  0.00000000000E+00 0.  1.
         14    1    3    3    0    0  0.12148011393E+02  0.72108211027E+01  0.20023319967E+02  0.24505172194E+02  0.00000000000E+00 0. -1.
          5    1    4    4  503    0 -0.42621523926E+02 -0.42520446021E+02  0.52559271235E+02  0.80057164728E+02  0.47000000000E+01 0. -1.
         -5    1    4    4    0  503 -0.14030404425E+03  0.63981758551E+02  0.28823548870E+02  0.15694514083E+03  0.47000000000E+01 0. -1.
         -2    1    1    2    0  502  0.72542736896E+02 -0.25482811375E+02 -0.22607125867E+04  0.22620197218E+04  0.00000000000E+00 0.  1.
         -2    1    1    2    0  501  0.14608001041E+01  0.13484124024E+02  0.23355681374E+03  0.23395029553E+03  0.00000000000E+00 0.  1.
<mgrwt>
<rscale>  0 0.32292665E+02</rscale>
<asrwt>0</asrwt>
<pdfrwt beam="1">  1       -1 0.21368272E+00 0.13563021E+02</pdfrwt>
<pdfrwt beam="2">  1       -1 0.35388040E+00 0.76886720E+02</pdfrwt>
<totfact> 0.32635700E-02</totfact>
</mgrwt>
</event>
<event>
13    1  0.1595792E-008  0.2512386E+02  0.7546771E-02  0.1694344E+00
         -1   -1    0    0    0  501 -0.00000000000E+00  0.00000000000E+00  0.46137876628E+03  0.46137876628E+03  0.00000000000E+00 0.  1.
          2   -1    0    0  503    0  0.00000000000E+00 -0.00000000000E+00 -0.19837858898E+04  0.19837858898E+04  0.00000000000E+00 0. -1.
         24    2    1    2    0    0  0.14828704582E+03  0.51189166468E+02  0.14421853127E+03  0.22820256781E+03  0.81658119466E+02 0.  0.
         25    2    1    2    0    0 -0.18537045824E+03 -0.11083042017E+03 -0.27674190337E+03  0.37263411134E+03  0.12499804410E+03 0.  0.
         24    2    1    2    0    0 -0.34418587330E+01  0.38464686852E+02 -0.10155837348E+04  0.10197350055E+04  0.83413310768E+02 0.  0.
        -13    1    5    5    0    0  0.16315996954E+02  0.37528229481E+01 -0.40372911334E+02  0.43706605980E+02  0.00000000000E+00 0.  1.
         14    1    5    5    0    0 -0.19757855687E+02  0.34711863904E+02 -0.97521082351E+03  0.97602839951E+03  0.00000000000E+00 0. -1.
        -13    1    3    3    0    0  0.10085577651E+03  0.10322636241E+02  0.12844942608E+03  0.16363893037E+03  0.00000000000E+00 0.  1.
         14    1    3    3    0    0  0.47431269311E+02  0.40866530227E+02  0.15769105192E+02  0.64563637443E+02  0.00000000000E+00 0. -1.
          5    1    4    4  502    0 -0.13881855493E+03 -0.13753729005E+03 -0.22287314739E+03  0.29644835499E+03  0.47000000000E+01 0. -1.
         -5    1    4    4    0  502 -0.46551903311E+02  0.26706869875E+02 -0.53868755978E+02  0.76185756352E+02  0.47000000000E+01 0. -1.
          1    1    1    2  503    0  0.22948518434E+02  0.10169927282E+02 -0.59870539254E+03  0.59923134846E+03  0.00000000000E+00 0. -1.
         -2    1    1    2    0  501  0.17576752724E+02  0.11006639570E+02  0.22440537596E+03  0.22536162298E+03  0.00000000000E+00 0.  1.
<mgrwt>
<rscale>  0 0.22826148E+02</rscale>
<asrwt>0</asrwt>
<pdfrwt beam="2">  1        2 0.29173322E+00 0.25123862E+02</pdfrwt>
<pdfrwt beam="1">  1       -1 0.67849819E-01 0.20738572E+02</pdfrwt>
<totfact> 0.30102462E+01</totfact>
</mgrwt>
</event>
<event>
13    1  0.1595792E-008  0.2584023E+03  0.7546771E-02  0.1187609E+00
          2   -1    0    0  502    0  0.00000000000E+00  0.00000000000E+00  0.19723296627E+04  0.19723296627E+04  0.00000000000E+00 0. -1.
          2   -1    0    0  503    0 -0.00000000000E+00 -0.00000000000E+00 -0.12010805440E+04  0.12010805440E+04  0.00000000000E+00 0. -1.
         24    2    1    2    0    0 -0.32896814956E+02 -0.24456123969E+02 -0.99866493356E+02  0.13446370718E+03  0.80167759221E+02 0.  0.
         25    2    1    2    0    0  0.21797957913E+03 -0.82665596005E+02 -0.51857167259E+02  0.26956243055E+03  0.12500416187E+03 0.  0.
         24    2    1    2    0    0  0.12244733288E+03 -0.74495418495E+02  0.13865584975E+03  0.21456248242E+03  0.79175106465E+02 0.  0.
        -11    1    3    3    0    0 -0.35741983096E+02  0.18187433253E+02 -0.74918106362E+02  0.84976436410E+02  0.00000000000E+00 0.  1.
         12    1    3    3    0    0  0.28451681405E+01 -0.42643557222E+02 -0.24948386993E+02  0.49487270766E+02  0.00000000000E+00 0. -1.
        -13    1    5    5    0    0 -0.35265857511E+01 -0.21613469813E+02  0.41476421083E+02  0.46902797254E+02  0.00000000000E+00 0.  1.
         14    1    5    5    0    0  0.12597391864E+03 -0.52881948681E+02  0.97179428671E+02  0.16765968516E+03  0.00000000000E+00 0. -1.
          5    1    4    4  501    0  0.56900057285E+02 -0.37235980281E+02 -0.74076178399E+02  0.10066531157E+03  0.47000000000E+01 0. -1.
         -5    1    4    4    0  501  0.16107952185E+03 -0.45429615724E+02  0.22219011141E+02  0.16889711898E+03  0.47000000000E+01 0. -1.
          1    1    1    2  502    0 -0.23751955336E+03  0.10580503668E+03  0.16563846968E+04  0.16766694689E+04  0.00000000000E+00 0. -1.
          1    1    1    2  503    0 -0.70010543697E+02  0.75812101792E+02 -0.87206776731E+03  0.87815211768E+03  0.00000000000E+00 0. -1.
<mgrwt>
<rscale>  0 0.16096715E+03</rscale>
<asrwt>0</asrwt>
<pdfrwt beam="1">  1        2 0.29004848E+00 0.25840235E+03</pdfrwt>
<pdfrwt beam="2">  1        2 0.17662949E+00 0.10027162E+03</pdfrwt>
<totfact> 0.30521934E+01</totfact>
</mgrwt>
</event>
<event>
13    1  0.1595792E-008  0.1385386E+03  0.7546771E-02  0.1356977E+00
         -1   -1    0    0    0  501 -0.00000000000E+00  0.00000000000E+00  0.88086432465E+03  0.88086432465E+03  0.00000000000E+00 0.  1.
          2   -1    0    0  503    0  0.00000000000E+00 -0.00000000000E+00 -0.10941759578E+04  0.10941759578E+04  0.00000000000E+00 0. -1.
         24    2    1    2    0    0 -0.26818166158E+02 -0.14221370506E+03  0.45327089046E+03  0.48280011675E+03  0.81838259105E+02 0.  0.
         25    2    1    2    0    0 -0.20288826094E+03  0.17335238463E+03  0.10098082555E+03  0.31151055839E+03  0.12500802046E+03 0.  0.
         24    2    1    2    0    0  0.81640281783E+02  0.27864986182E+02  0.18935423034E+02  0.11947943658E+03  0.80468580549E+02 0.  0.
        -11    1    5    5    0    0  0.18491317424E+02 -0.27723235213E+02  0.37446563694E+00  0.33326368167E+02  0.00000000000E+00 0.  1.
         12    1    5    5    0    0  0.63148964359E+02  0.55588221394E+02  0.18560957397E+02  0.86153068413E+02  0.00000000000E+00 0. -1.
        -13    1    3    3    0    0 -0.18792279178E+02 -0.13849435845E+03  0.31943926040E+03  0.34867646632E+03  0.00000000000E+00 0.  1.
         14    1    3    3    0    0 -0.80258869800E+01 -0.37193466101E+01  0.13383163006E+03  0.13412365043E+03  0.00000000000E+00 0. -1.
          5    1    4    4  502    0 -0.30157103413E+02  0.19012457446E+02 -0.28692750632E+02  0.46003134276E+02  0.47000000000E+01 0. -1.
         -5    1    4    4    0  502 -0.17273115752E+03  0.15433992718E+03  0.12967357618E+03  0.26550742411E+03  0.47000000000E+01 0. -1.
          1    1    1    2  503    0  0.13555658292E+03 -0.24916949663E+02 -0.91622735916E+03  0.92653603018E+03  0.00000000000E+00 0. -1.
         -2    1    1    2    0  501  0.12509562391E+02 -0.34086716089E+02  0.12972858701E+03  0.13471414051E+03  0.00000000000E+00 0.  1.
<mgrwt>
<rscale>  0 0.70924562E+02</rscale>
<asrwt>0</asrwt>
<pdfrwt beam="2">  1        2 0.16090823E+00 0.13853861E+03</pdfrwt>
<pdfrwt beam="1">  1       -1 0.12953887E+00 0.36309687E+02</pdfrwt>
<totfact> 0.18168709E+01</totfact>
</mgrwt>
</event>
<event>
13    1  0.1595792E-008  0.9185103E+02  0.7546771E-02  0.1409661E+00
         -1   -1    0    0    0  501 -0.00000000000E+00  0.00000000000E+00  0.35777628124E+03  0.35777628124E+03  0.00000000000E+00 0.  1.
          2   -1    0    0  503    0  0.00000000000E+00 -0.00000000000E+00 -0.43274601013E+04  0.43274601013E+04  0.00000000000E+00 0. -1.
         24    2    1    2    0    0  0.55543364471E+01 -0.15082165127E+02 -0.19672046011E+02  0.83953709033E+02  0.80018207352E+02 0.  0.
         25    2    1    2    0    0  0.60136840705E+02 -0.40277461713E+02 -0.35521411417E+02  0.14873958673E+03  0.12499192158E+03 0.  0.
         24    2    1    2    0    0  0.30991557996E+02  0.98250543515E+02 -0.12883582905E+04  0.12950299980E+04  0.81375457516E+02 0.  0.
        -13    1    3    3    0    0  0.15961666017E+02  0.28177582542E+02  0.54766768145E+01  0.32844252600E+02  0.00000000000E+00 0.  1.
         14    1    3    3    0    0 -0.10407329570E+02 -0.43259747668E+02 -0.25148722825E+02  0.51109456433E+02  0.00000000000E+00 0. -1.
        -13    1    5    5    0    0  0.24044321896E+02  0.70313269808E+01 -0.97638167213E+02  0.10080069777E+03  0.00000000000E+00 0.  1.
         14    1    5    5    0    0  0.69472360996E+01  0.91219216534E+02 -0.11907201233E+04  0.11942293002E+04  0.00000000000E+00 0. -1.
          5    1    4    4  502    0  0.97173730590E+02 -0.43182398658E+02 -0.31901978304E+02  0.11111831393E+03  0.47000000000E+01 0. -1.
         -5    1    4    4    0  502 -0.37036889885E+02  0.29049369458E+01 -0.36194331130E+01  0.37621272800E+02  0.47000000000E+01 0. -1.
          1    1    1    2  503    0 -0.91491500241E+02 -0.75623382163E+01 -0.28898906225E+04  0.28913484213E+04  0.00000000000E+00 0. -1.
         -2    1    1    2    0  501 -0.51912349069E+01 -0.35328578460E+02  0.26375855029E+03  0.26616466750E+03  0.00000000000E+00 0.  1.
<mgrwt>
<rscale>  0 0.57269639E+02</rscale>
<asrwt>0</asrwt>
<pdfrwt beam="2">  1        2 0.63639113E+00 0.91851030E+02</pdfrwt>
<pdfrwt beam="1">  1       -1 0.52614164E-01 0.35707946E+02</pdfrwt>
<totfact> 0.19306180E+00</totfact>
</mgrwt>
</event>
<event>
13    1  0.1595792E-008  0.1167463E+03  0.7546771E-02  0.1519523E+00
         -3   -1    0    0    0  501 -0.00000000000E+00  0.00000000000E+00  0.76226622309E+03  0.76226622309E+03  0.00000000000E+00 0.  1.
          2   -1    0    0  503    0  0.00000000000E+00 -0.00000000000E+00 -0.92595971591E+03  0.92595971591E+03  0.00000000000E+00 0. -1.
         24    2    1    2    0    0  0.47712791701E+02  0.84961071735E+02  0.30246061086E+03  0.32767788550E+03  0.79971753253E+02 0.  0.
         25    2    1    2    0    0 -0.10232887119E+03  0.59657190071E+02 -0.10484942255E+03  0.20161065083E+03  0.12499309946E+03 0.  0.
         24    2    1    2    0    0 -0.19795284849E+02 -0.48746665604E+02 -0.25783196929E+03  0.27507191085E+03  0.80119542192E+02 0.  0.
        -11    1    3    3    0    0  0.21096561192E+02  0.94689516769E+02  0.24768979608E+03  0.26601015875E+03  0.00000000000E+00 0.  1.
         12    1    3    3    0    0  0.26616230510E+02 -0.97284450339E+01  0.54770814786E+02  0.61667726743E+02  0.00000000000E+00 0. -1.
        -13    1    5    5    0    0  0.28088540300E+02 -0.36553667982E+02 -0.11292603482E+03  0.12197305473E+03  0.00000000000E+00 0.  1.
         14    1    5    5    0    0 -0.47883825149E+02 -0.12192997622E+02 -0.14490593446E+03  0.15309885612E+03  0.00000000000E+00 0. -1.
          5    1    4    4  502    0 -0.32919000194E+02  0.90191656732E+02 -0.61976758694E+02  0.11437396616E+03  0.47000000000E+01 0. -1.
         -5    1    4    4    0  502 -0.69409870992E+02 -0.30534466661E+02 -0.42872663852E+02  0.87236684664E+02  0.47000000000E+01 0. -1.
          1    1    1    2  503    0  0.12650744770E+02  0.11009495677E+01 -0.48511536824E+03  0.48528154090E+03  0.00000000000E+00 0. -1.
         -4    1    1    2    0  501  0.61760619563E+02 -0.96972545770E+02  0.38164265639E+03  0.39858395093E+03  0.00000000000E+00 0.  1.
<mgrwt>
<rscale>  0 0.38503376E+02</rscale>
<asrwt>0</asrwt>
<pdfrwt beam="2">  1        2 0.13617055E+00 0.12698560E+02</pdfrwt>
<pdfrwt beam="1">  1       -3 0.11209797E+00 0.11674630E+03</pdfrwt>
<totfact> 0.15235985E+01</totfact>
</mgrwt>
</event>
<event>
13    1  0.1595792E-008  0.7373136E+02  0.7546771E-02  0.1556158E+00
          2   -1    0    0  503    0  0.00000000000E+00  0.00000000000E+00  0.22148352663E+04  0.22148352663E+04  0.00000000000E+00 0. -1.
          2   -1    0    0  502    0 -0.00000000000E+00 -0.00000000000E+00 -0.33018971593E+04  0.33018971593E+04  0.00000000000E+00 0. -1.
         24    2    1    2    0    0 -0.47353019831E+03  0.45097471717E+02 -0.24555350205E+04  0.25028554267E+04  0.91479064220E+02 0.  0.
         25    2    1    2    0    0 -0.29841031812E+03 -0.78640011358E+02 -0.22155835918E+03  0.39993092823E+03  0.12499468581E+03 0.  0.
         24    2    1    2    0    0  0.70172621542E+03  0.80507758468E+02  0.74219702692E+03  0.10282327036E+04  0.86630741488E+02 0.  0.
        -11    1    3    3    0    0 -0.11470657414E+03 -0.18746695640E+02 -0.73599367418E+03  0.74511457185E+03  0.00000000000E+00 0.  1.
         12    1    3    3    0    0 -0.35882362417E+03  0.63844167357E+02 -0.17195413463E+04  0.17577408548E+04  0.00000000000E+00 0. -1.
        -13    1    5    5    0    0  0.42926590370E+03  0.47173286971E+02  0.39158437844E+03  0.58295185095E+03  0.00000000000E+00 0.  1.
         14    1    5    5    0    0  0.27246031172E+03  0.33334471497E+02  0.35061264848E+03  0.44528085264E+03  0.00000000000E+00 0. -1.
          5    1    4    4  501    0 -0.59944047546E+02 -0.32237874332E+02 -0.11692833986E+03  0.13537686671E+03  0.47000000000E+01 0.  1.
         -5    1    4    4    0  501 -0.23846627058E+03 -0.46402137026E+02 -0.10463001933E+03  0.26455406152E+03  0.47000000000E+01 0.  1.
          1    1    1    2  502    0  0.15617500947E+02  0.25822379307E+01 -0.36765214931E+03  0.36799276783E+03  0.00000000000E+00 0. -1.
          1    1    1    2  503    0  0.54596800072E+02 -0.49547456757E+02  0.12154866091E+04  0.12177205993E+04  0.00000000000E+00 0. -1.
<mgrwt>
<rscale>  0 0.34163333E+02</rscale>
<asrwt>0</asrwt>
<pdfrwt beam="1">  1        2 0.32571107E+00 0.73731356E+02</pdfrwt>
<pdfrwt beam="2">  1        2 0.48557311E+00 0.15829538E+02</pdfrwt>
<totfact> 0.32970290E+00</totfact>
</mgrwt>
</event>
<event>
13    1  0.1595792E-008  0.1725893E+03  0.7546771E-02  0.1225195E+00
          2   -1    0    0  503    0  0.00000000000E+00  0.00000000000E+00  0.15290109368E+04  0.15290109368E+04  0.00000000000E+00 0. -1.
          2   -1    0    0  502    0 -0.00000000000E+00 -0.00000000000E+00 -0.15360835923E+04  0.15360835923E+04  0.00000000000E+00 0. -1.
         24    2    1    2    0    0 -0.61680967417E+02  0.78132649036E+01 -0.37214305412E+03  0.38579799503E+03  0.80523607670E+02 0.  0.
         25    2    1    2    0    0 -0.12960224651E+02  0.11890230462E+03  0.81547959978E+02  0.19126169501E+03  0.12500096294E+03 0.  0.
         24    2    1    2    0    0 -0.16022831147E+03 -0.16715177635E+03  0.87839160185E+03  0.91244934665E+03  0.85902129655E+02 0.  0.
        -11    1    5    5    0    0 -0.58011715573E+02 -0.14690058204E+02  0.15550004768E+03  0.16661759146E+03  0.00000000000E+00 0.  1.
         12    1    5    5    0    0 -0.10221659590E+03 -0.15246171814E+03  0.72289155416E+03  0.74583175520E+03  0.00000000000E+00 0. -1.
        -13    1    3    3    0    0 -0.21295417643E+02  0.39684215685E+02 -0.23599642396E+03  0.24025537228E+03  0.00000000000E+00 0.  1.
         14    1    3    3    0    0 -0.40385549775E+02 -0.31870950782E+02 -0.13614663016E+03  0.14554262276E+03  0.00000000000E+00 0. -1.
          5    1    4    4  501    0 -0.48528116769E+02  0.73810071695E+02  0.97323701628E+02  0.13151767067E+03  0.47000000000E+01 0.  1.
         -5    1    4    4    0  501  0.35567892117E+02  0.45092232920E+02 -0.15775741650E+02  0.59744024337E+02  0.47000000000E+01 0.  1.
          1    1    1    2  502    0  0.64048617429E+02  0.77118677114E+02 -0.10672407041E+04  0.10719385412E+04  0.00000000000E+00 0. -1.
          1    1    1    2  503    0  0.17082088611E+03 -0.36682470287E+02  0.47237154088E+03  0.50364695114E+03  0.00000000000E+00 0. -1.
<mgrwt>
<rscale>  0 0.13153557E+03</rscale>
<asrwt>0</asrwt>
<pdfrwt beam="1">  1        2 0.22485455E+00 0.17258929E+03</pdfrwt>
<pdfrwt beam="2">  1        2 0.22589465E+00 0.10024727E+03</pdfrwt>
<totfact> 0.35570432E+01</totfact>
</mgrwt>
</event>
<event>
13    1  0.1595792E-008  0.7666799E+02  0.7546771E-02  0.1468996E+00
          2   -1    0    0  503    0  0.00000000000E+00  0.00000000000E+00  0.39451383924E+04  0.39451383924E+04  0.00000000000E+00 0. -1.
          2   -1    0    0  502    0 -0.00000000000E+00 -0.00000000000E+00 -0.23982257543E+04  0.23982257543E+04  0.00000000000E+00 0. -1.
         24    2    1    2    0    0 -0.46420171347E+00  0.22010550709E+02 -0.41002814517E+03  0.41852720124E+03  0.80976901162E+02 0.  0.
         25    2    1    2    0    0  0.13999910978E+03 -0.42494083051E+02  0.18729289222E+02  0.19334416224E+03  0.12500272382E+03 0.  0.
         24    2    1    2    0    0 -0.66218818728E+02  0.51665671424E+02  0.18694325561E+03  0.22165921495E+03  0.84443787205E+02 0.  0.
        -11    1    3    3    0    0  0.40239545036E+02  0.12022463976E+02 -0.20236882592E+03  0.20668067721E+03  0.00000000000E+00 0.  1.
         12    1    3    3    0    0 -0.40703746749E+02  0.99880867330E+01 -0.20765931925E+03  0.21184652404E+03  0.00000000000E+00 0. -1.
        -13    1    5    5    0    0 -0.54451814403E+02 -0.58071042826E+01  0.12433955448E+03  0.13586407678E+03  0.00000000000E+00 0.  1.
         14    1    5    5    0    0 -0.11767004325E+02  0.57472775707E+02  0.62603701134E+02  0.85795138172E+02  0.00000000000E+00 0. -1.
          5    1    4    4  501    0  0.79076386188E+02  0.30161369609E+02  0.43440272311E+02  0.95246681452E+02  0.47000000000E+01 0.  1.
         -5    1    4    4    0  501  0.60922723596E+02 -0.72655452660E+02 -0.24710983088E+02  0.98097480787E+02  0.47000000000E+01 0.  1.
          1    1    1    2  502    0  0.32523259940E+01 -0.27247725038E+02 -0.18787776854E+04  0.18789780753E+04  0.00000000000E+00 0. -1.
          1    1    1    2  503    0 -0.76568415336E+02 -0.39344140436E+01  0.36300459238E+04  0.36308554930E+04  0.00000000000E+00 0. -1.
<mgrwt>
<rscale>  0 0.45867822E+02</rscale>
<asrwt>0</asrwt>
<pdfrwt beam="1">  1        2 0.58016741E+00 0.76667993E+02</pdfrwt>
<pdfrwt beam="2">  1        2 0.35268026E+00 0.27441140E+02</pdfrwt>
<totfact> 0.92410651E-01</totfact>
</mgrwt>
</event>
<event>
13    1  0.1595792E-008  0.8516180E+02  0.7546771E-02  0.1328168E+00
          2   -1    0    0  502    0  0.00000000000E+00  0.00000000000E+00  0.25398658874E+04  0.25398658874E+04  0.00000000000E+00 0. -1.
          2   -1    0    0  503    0 -0.00000000000E+00 -0.00000000000E+00 -0.10687539521E+04  0.10687539521E+04  0.00000000000E+00 0. -1.
         24    2    1    2    0    0 -0.71772254222E+02  0.15607600310E+03  0.86177136219E+01  0.19027380445E+03  0.81356502212E+02 0.  0.
         25    2    1    2    0    0  0.57132183542E+02 -0.49595269508E+02  0.14303556526E+03  0.20446832789E+03  0.12499738808E+03 0.  0.
         24    2    1    2    0    0 -0.55013107744E+01  0.25797264652E+02  0.37449955624E+03  0.38407774228E+03  0.81055729012E+02 0.  0.
        -13    1    5    5    0    0  0.30031036143E+01  0.22034444243E+02  0.37410952883E+03  0.37476989597E+03  0.00000000000E+00 0.  1.
         14    1    5    5    0    0 -0.85044143887E+01  0.37628204089E+01  0.39002741134E+00  0.93078463087E+01  0.00000000000E+00 0. -1.
        -13    1    3    3    0    0 -0.46078992032E+02  0.15055266378E+03  0.24834227330E+02  0.15939296385E+03  0.00000000000E+00 0.  1.
         14    1    3    3    0    0 -0.25693262190E+02  0.55233393178E+01 -0.16216513708E+02  0.30880840598E+02  0.00000000000E+00 0. -1.
          5    1    4    4  501    0 -0.33979941910E+02 -0.28885891269E+02  0.18037014090E+02  0.48336891127E+02  0.47000000000E+01 0.  1.
         -5    1    4    4    0  501  0.91112125452E+02 -0.20709378239E+02  0.12499855117E+03  0.15613143676E+03  0.47000000000E+01 0.  1.
          1    1    1    2  502    0  0.62227992507E+02 -0.58242538711E+02  0.18844904212E+04  0.18864168850E+04  0.00000000000E+00 0. -1.
          1    1    1    2  503    0 -0.42086611052E+02 -0.74035459532E+02 -0.93953132106E+03  0.94338307985E+03  0.00000000000E+00 0. -1.
<mgrwt>
<rscale>  0 0.80312167E+02</rscale>
<asrwt>0</asrwt>
<pdfrwt beam="1">  1        2 0.37350969E+00 0.75738701E+02</pdfrwt>
<pdfrwt beam="2">  1        2 0.15716970E+00 0.85161800E+02</pdfrwt>
<totfact> 0.21849076E+01</totfact>
</mgrwt>
</event>
<event>
13    1  0.1595792E-008  0.6915570E+02  0.7546771E-02  0.1552123E+00
          2   -1    0    0  502    0  0.00000000000E+00  0.00000000000E+00  0.99725131233E+03  0.99725131233E+03  0.00000000000E+00 0. -1.
          2   -1    0    0  503    0 -0.00000000000E+00 -0.00000000000E+00 -0.15325039032E+04  0.15325039032E+04  0.00000000000E+00 0. -1.
         24    2    1    2    0    0  0.40880783226E+02 -0.16455109968E+02  0.19359188379E+02  0.93700055175E+02  0.80392245172E+02 0.  0.
         25    2    1    2    0    0  0.65133765324E+02  0.10210157907E+03  0.35319826073E+02  0.17759301976E+03  0.12499860288E+03 0.  0.
         24    2    1    2    0    0 -0.59408916959E+02 -0.47653086994E+02  0.31517080527E+03  0.33427497788E+03  0.81282767123E+02 0.  0.
        -11    1    3    3    0    0  0.55074530083E+02  0.14357646349E+02  0.59653847213E+01  0.57227018858E+02  0.00000000000E+00 0.  1.
         12    1    3    3    0    0 -0.14193746857E+02 -0.30812756318E+02  0.13393803657E+02  0.36473036316E+02  0.00000000000E+00 0. -1.
        -11    1    5    5    0    0  0.13950686861E+02 -0.30012218489E+02  0.64506081489E+02  0.72500961867E+02  0.00000000000E+00 0.  1.
         12    1    5    5    0    0 -0.73359603820E+02 -0.17640868506E+02  0.25066472378E+03  0.26177401602E+03  0.00000000000E+00 0. -1.
          5    1    4    4  501    0 -0.19838298435E+02  0.50968864046E+02 -0.26167519060E+02  0.60812928237E+02  0.47000000000E+01 0.  1.
         -5    1    4    4    0  501  0.84972063759E+02  0.51132715022E+02  0.61487345133E+02  0.11678009152E+03  0.47000000000E+01 0.  1.
          1    1    1    2  502    0 -0.42505286954E+02 -0.54818590543E+02  0.50712820947E+03  0.51185036693E+03  0.00000000000E+00 0. -1.
          1    1    1    2  503    0 -0.41003446370E+01  0.16825208438E+02 -0.14122306200E+04  0.14123367957E+04  0.00000000000E+00 0. -1.
<mgrwt>
<rscale>  0 0.34606546E+02</rscale>
<asrwt>0</asrwt>
<pdfrwt beam="1">  1        2 0.14665461E+00 0.69155695E+02</pdfrwt>
<pdfrwt beam="2">  1        2 0.22536822E+00 0.17317635E+02</pdfrwt>
<totfact> 0.83966013E+01</totfact>
</mgrwt>
</event>
<event>
13    1  0.1595792E-008  0.1017842E+03  0.7546771E-02  0.1356935E+00
          2   -1    0    0  502    0  0.00000000000E+00  0.00000000000E+00  0.26865051185E+04  0.26865051185E+04  0.00000000000E+00 0. -1.
          2   -1    0    0  503    0 -0.00000000000E+00 -0.00000000000E+00 -0.15533070630E+04  0.15533070630E+04  0.00000000000E+00 0. -1.
         24    2    1    2    0    0  0.12992115345E+03 -0.68200409984E+02 -0.12331978182E+03  0.20773484789E+03  0.80094921198E+02 0.  0.
         25    2    1    2    0    0 -0.24485984523E+03  0.22381797596E+03  0.87261857129E+03  0.94188045020E+03  0.12499912534E+03 0.  0.
         24    2    1    2    0    0  0.15926243973E+03 -0.12428197905E+03  0.40172148780E+03  0.45694324312E+03  0.81280001565E+02 0.  0.
        -11    1    3    3    0    0  0.91994985100E+02 -0.62770738785E+02 -0.12738775084E+03  0.16920662515E+03  0.00000000000E+00 0.  1.
         12    1    3    3    0    0  0.37926168354E+02 -0.54296711990E+01  0.40679690182E+01  0.38528222737E+02  0.00000000000E+00 0. -1.
        -13    1    5    5    0    0  0.38321231102E+01  0.11026538697E+02  0.20797653303E+02  0.23849782097E+02  0.00000000000E+00 0.  1.
         14    1    5    5    0    0  0.15543031662E+03 -0.13530851774E+03  0.38092383449E+03  0.43309346102E+03  0.00000000000E+00 0. -1.
          5    1    4    4  501    0 -0.50089595362E+02  0.61885750489E+02  0.95023503897E+02  0.12405792990E+03  0.47000000000E+01 0. -1.
         -5    1    4    4    0  501 -0.19477024987E+03  0.16193222547E+03  0.77759506740E+03  0.81782252031E+03  0.47000000000E+01 0. -1.
          1    1    1    2  502    0  0.48081624078E+02  0.11504358978E+02  0.13052904873E+04  0.13062264157E+04  0.00000000000E+00 0. -1.
          1    1    1    2  503    0 -0.92405372028E+02 -0.42839945905E+02 -0.13231127090E+04  0.13270272245E+04  0.00000000000E+00 0. -1.
<mgrwt>
<rscale>  0 0.70937205E+02</rscale>
<asrwt>0</asrwt>
<pdfrwt beam="1">  1        2 0.39507428E+00 0.49438779E+02</pdfrwt>
<pdfrwt beam="2">  1        2 0.22842751E+00 0.10178421E+03</pdfrwt>
<totfact> 0.10938826E+01</totfact>
</mgrwt>
</event>
<event>
13    1  0.1595792E-008  0.1288470E+03  0.7546771E-02  0.1415195E+00
          2   -1    0    0  502    0  0.00000000000E+00  0.00000000000E+00  0.27891510180E+04  0.27891510180E+04  0.00000000000E+00 0. -1.
          2   -1    0    0  503    0 -0.00000000000E+00 -0.00000000000E+00 -0.23741063515E+04  0.23741063515E+04  0.00000000000E+00 0. -1.
         24    2    1    2    0    0 -0.92154033340E+02 -0.75171571256E+01 -0.13710378431E+03  0.18463321215E+03  0.82116392064E+02 0.  0.
         25    2    1    2    0    0 -0.12513502745E+02  0.11876897197E+02  0.21531216886E+03  0.24955984268E+03  0.12499254611E+03 0.  0.
         24    2    1    2    0    0 -0.33527606525E+02  0.43428254575E+02  0.20465818942E+03  0.22087989162E+03  0.62392614372E+02 0.  0.
        -11    1    3    3    0    0 -0.60749366212E+02 -0.43304046396E+02 -0.97069171837E+02  0.12242610037E+03  0.00000000000E+00 0.  1.
         12    1    3    3    0    0 -0.31404667128E+02  0.35786889270E+02 -0.40034612470E+02  0.62207111785E+02  0.00000000000E+00 0. -1.
        -13    1    5    5    0    0 -0.49843109841E+02  0.21179868312E+02  0.15322636017E+03  0.16251535272E+03  0.00000000000E+00 0.  1.
         14    1    5    5    0    0  0.16315503317E+02  0.22248386264E+02  0.51431829256E+02  0.58364538895E+02  0.00000000000E+00 0. -1.
          5    1    4    4  501    0 -0.48389739156E+02 -0.35484075275E+02  0.14733014142E+03  0.15915070538E+03  0.47000000000E+01 0.  1.
         -5    1    4    4    0  501  0.35876236411E+02  0.47360972472E+02  0.67982027438E+02  0.90409137299E+02  0.47000000000E+01 0.  1.
          1    1    1    2  502    0  0.11043282457E+02 -0.21738710103E+02  0.23181922552E+04  0.23183204820E+04  0.00000000000E+00 0. -1.
          1    1    1    2  503    0  0.12715186015E+03 -0.26049284544E+02 -0.21860141627E+04  0.21898639410E+04  0.00000000000E+00 0. -1.
<mgrwt>
<rscale>  0 0.56050542E+02</rscale>
<asrwt>0</asrwt>
<pdfrwt beam="1">  1        2 0.41016927E+00 0.24382896E+02</pdfrwt>
<pdfrwt beam="2">  1        2 0.34913329E+00 0.12884701E+03</pdfrwt>
<totfact> 0.42526202E+00</totfact>
</mgrwt>
</event>
<event>
13    1  0.1595792E-008  0.9247292E+02  0.7546771E-02  0.1308340E+00
          2   -1    0    0  503    0  0.00000000000E+00  0.00000000000E+00  0.60270774154E+03  0.60270774154E+03  0.00000000000E+00 0. -1.
          2   -1    0    0  502    0 -0.00000000000E+00 -0.00000000000E+00 -0.35979248115E+04  0.35979248115E+04  0.00000000000E+00 0. -1.
         24    2    1    2    0    0  0.12754136413E+03  0.11258524580E+03 -0.23283055954E+04  0.23358494789E+04  0.79016487701E+02 0.  0.
         25    2    1    2    0    0  0.84763255860E+01 -0.12384100727E+03 -0.21362158610E+02  0.17745450027E+03  0.12500125867E+03 0.  0.
         24    2    1    2    0    0  0.87118669148E+02  0.28952184848E+01  0.94005445433E+02  0.15114840220E+03  0.80067289896E+02 0.  0.
        -11    1    5    5    0    0  0.10016012126E+03 -0.72880604743E+01  0.71781315138E+02  0.12344117190E+03  0.00000000000E+00 0.  1.
         12    1    5    5    0    0 -0.13041452112E+02  0.10183278959E+02  0.22224130296E+02  0.27707230301E+02  0.00000000000E+00 0. -1.
        -13    1    3    3    0    0  0.35723515829E+01  0.44476161656E+01 -0.86116515873E+01  0.10329739999E+02  0.00000000000E+00 0.  1.
         14    1    3    3    0    0  0.12396901255E+03  0.10813762963E+03 -0.23196939438E+04  0.23255197389E+04  0.00000000000E+00 0. -1.
          5    1    4    4  501    0  0.35907183971E+02 -0.13453904062E+03 -0.36481025380E+02  0.14402442336E+03  0.47000000000E+01 0. -1.
         -5    1    4    4    0  501 -0.27430858385E+02  0.10698033356E+02  0.15118866770E+02  0.33430076904E+02  0.47000000000E+01 0. -1.
          1    1    1    2  502    0 -0.82632314679E+02 -0.10596917647E+02 -0.11236602012E+04  0.11267442664E+04  0.00000000000E+00 0. -1.
          1    1    1    2  503    0 -0.14050404418E+03  0.18957460630E+02  0.38410543975E+03  0.40943590536E+03  0.00000000000E+00 0. -1.
<mgrwt>
<rscale>  0 0.87771460E+02</rscale>
<asrwt>0</asrwt>
<pdfrwt beam="1">  1        2 0.88633491E-01 0.92472922E+02</pdfrwt>
<pdfrwt beam="2">  1        2 0.52910659E+00 0.83309028E+02</pdfrwt>
<totfact> 0.11582774E+01</totfact>
</mgrwt>
</event>
<event>
13    1  0.1595792E-008  0.3160494E+03  0.7546771E-02  0.1284620E+00
          2   -1    0    0  503    0  0.00000000000E+00  0.00000000000E+00  0.25893002366E+04  0.25893002366E+04  0.00000000000E+00 0. -1.
          2   -1    0    0  502    0 -0.00000000000E+00 -0.00000000000E+00 -0.23941762337E+04  0.23941762337E+04  0.00000000000E+00 0. -1.
         24    2    1    2    0    0 -0.26117716681E+03 -0.64164278885E+02 -0.69896651551E+03  0.75344196397E+03  0.82401675419E+02 0.  0.
         25    2    1    2    0    0 -0.20558202629E+02  0.25181822185E+03 -0.53633509665E+03  0.60590239006E+03  0.12500925500E+03 0.  0.
         24    2    1    2    0    0  0.51485808460E+03 -0.43720004522E+03  0.35658640228E+02  0.68131609586E+03  0.81837381647E+02 0.  0.
        -11    1    3    3    0    0 -0.72399117457E+02 -0.39586036500E+02 -0.13509574318E+03  0.15830207301E+03  0.00000000000E+00 0.  1.
         12    1    3    3    0    0 -0.18877804936E+03 -0.24578242385E+02 -0.56387077234E+03  0.59513989096E+03  0.00000000000E+00 0. -1.
        -11    1    5    5    0    0  0.54225808120E+02 -0.79047340890E+02 -0.80462688916E+01  0.96195960472E+02  0.00000000000E+00 0.  1.
         12    1    5    5    0    0  0.46063227648E+03 -0.35815270433E+03  0.43704909119E+02  0.58512013539E+03  0.00000000000E+00 0. -1.
          5    1    4    4  501    0  0.58357069454E+01  0.97734033797E+02 -0.90423950532E+02  0.13335883048E+03  0.47000000000E+01 0.  1.
         -5    1    4    4    0  501 -0.26393909575E+02  0.15408418805E+03 -0.44591114612E+03  0.47254355958E+03  0.47000000000E+01 0.  1.
          1    1    1    2  502    0 -0.10046387229E+02  0.28660249645E+02 -0.76236016773E+03  0.76296485184E+03  0.00000000000E+00 0. -1.
          1    1    1    2  503    0 -0.22307632792E+03  0.22088585262E+03  0.21571271426E+04  0.21798511686E+04  0.00000000000E+00 0. -1.
<mgrwt>
<rscale>  0 0.97971608E+02</rscale>
<asrwt>0</asrwt>
<pdfrwt beam="1">  1        2 0.38077945E+00 0.31604942E+03</pdfrwt>
<pdfrwt beam="2">  1        2 0.35208474E+00 0.30370048E+02</pdfrwt>
<totfact> 0.43998052E+00</totfact>
</mgrwt>
</event>
<event>
13    1  0.1595792E-008  0.8590160E+02  0.7546771E-02  0.1321736E+00
          2   -1    0    0  502    0  0.00000000000E+00  0.00000000000E+00  0.35602393971E+04  0.35602393971E+04  0.00000000000E+00 0. -1.
          2   -1    0    0  503    0 -0.00000000000E+00 -0.00000000000E+00 -0.32582830132E+04  0.32582830132E+04  0.00000000000E+00 0. -1.
         24    2    1    2    0    0 -0.36349486501E+02 -0.60005616575E+02  0.13295283438E+02  0.10882770681E+03  0.82126402690E+02 0.  0.
         25    2    1    2    0    0 -0.32561595202E+03  0.25168108058E+03 -0.24573987061E+03  0.49535985676E+03  0.12499675657E+03 0.  0.
         24    2    1    2    0    0  0.29358402835E+03 -0.34051067159E+03  0.52497366612E+03  0.69315893751E+03  0.52276795694E+02 0.  0.
        -13    1    5    5    0    0  0.26184596723E+03 -0.27536180386E+03  0.44784014839E+03  0.58732293680E+03  0.00000000000E+00 0.  1.
         14    1    5    5    0    0  0.31738061123E+02 -0.65148867732E+02  0.77133517727E+02  0.10583600072E+03  0.00000000000E+00 0. -1.
        -13    1    3    3    0    0 -0.47427097810E+02 -0.55676914845E+02  0.37253643611E+02  0.82079732064E+02  0.00000000000E+00 0.  1.
         14    1    3    3    0    0  0.11077611309E+02 -0.43287017297E+01 -0.23958360172E+02  0.26747974748E+02  0.00000000000E+00 0. -1.
          5    1    4    4  501    0 -0.92602801154E+01 -0.64031078940E+01 -0.32528675070E+02  0.34741290712E+02  0.47000000000E+01 0. -1.
         -5    1    4    4    0  501 -0.31635567190E+03  0.25808418847E+03 -0.21321119554E+03  0.46061856605E+03  0.47000000000E+01 0. -1.
          1    1    1    2  502    0  0.22641379183E+02  0.76199898965E+02  0.27640616554E+04  0.27652044937E+04  0.00000000000E+00 0. -1.
          1    1    1    2  503    0  0.45740030987E+02  0.72635308617E+02 -0.27546343505E+04  0.27559714155E+04  0.00000000000E+00 0. -1.
<mgrwt>
<rscale>  0 0.82634935E+02</rscale>
<asrwt>0</asrwt>
<pdfrwt beam="1">  1        2 0.52356462E+00 0.79492494E+02</pdfrwt>
<pdfrwt beam="2">  1        2 0.47915927E+00 0.85901600E+02</pdfrwt>
<totfact> 0.48840247E-01</totfact>
</mgrwt>
</event>
<event>
13    1  0.1595792E-008  0.7398813E+02  0.7546771E-02  0.1361039E+00
          2   -1    0    0  503    0  0.00000000000E+00  0.00000000000E+00  0.11912373446E+04  0.11912373446E+04  0.00000000000E+00 0. -1.
          2   -1    0    0  502    0 -0.00000000000E+00 -0.00000000000E+00 -0.11676527909E+04  0.11676527909E+04  0.00000000000E+00 0. -1.
         24    2    1    2    0    0 -0.48820316809E+02  0.15738109035E+02 -0.62239116819E+02  0.11330201890E+03  0.79577185268E+02 0.  0.
         25    2    1    2    0    0 -0.25025042587E-01 -0.47075657341E+02 -0.10742369941E+03  0.17140885264E+03  0.12500010171E+03 0.  0.
         24    2    1    2    0    0  0.83562417048E+02  0.13686061803E+03  0.63582812969E+03  0.66083241437E+03  0.81905818285E+02 0.  0.
        -11    1    5    5    0    0 -0.37708026194E+01  0.36653802636E+02  0.64858242110E+02  0.74594314593E+02  0.00000000000E+00 0.  1.
         12    1    5    5    0    0  0.87333219667E+02  0.10020681540E+03  0.57096988758E+03  0.58623809978E+03  0.00000000000E+00 0. -1.
        -13    1    3    3    0    0 -0.55642031588E+02 -0.12392087777E+02 -0.62180443054E+02  0.84356428428E+02  0.00000000000E+00 0.  1.
         14    1    3    3    0    0  0.68217147790E+01  0.28130196812E+02 -0.58673764854E-01  0.28945590472E+02  0.00000000000E+00 0. -1.
          5    1    4    4  501    0 -0.26807595506E+02 -0.81582219997E+02 -0.51319547583E+02  0.10015034578E+03  0.47000000000E+01 0. -1.
         -5    1    4    4    0  501  0.26782570463E+02  0.34506562656E+02 -0.56104151828E+02  0.71258506856E+02  0.47000000000E+01 0. -1.
          1    1    1    2  502    0  0.21107723958E+02 -0.70875630869E+02 -0.92425668521E+03  0.92721049995E+03  0.00000000000E+00 0. -1.
          1    1    1    2  503    0 -0.55824799154E+02 -0.34647438857E+02  0.48167592551E+03  0.48613634964E+03  0.00000000000E+00 0. -1.
<mgrwt>
<rscale>  0 0.69722485E+02</rscale>
<asrwt>0</asrwt>
<pdfrwt beam="1">  1        2 0.17518196E+00 0.65702764E+02</pdfrwt>
<pdfrwt beam="2">  1        2 0.17171364E+00 0.73988134E+02</pdfrwt>
<totfact> 0.88779978E+01</totfact>
</mgrwt>
</event>
<event>
13    1  0.1595792E-008  0.1478535E+03  0.7546771E-02  0.1245087E+00
          2   -1    0    0  503    0  0.00000000000E+00  0.00000000000E+00  0.33644795117E+04  0.33644795117E+04  0.00000000000E+00 0. -1.
          2   -1    0    0  502    0 -0.00000000000E+00 -0.00000000000E+00 -0.25672406407E+04  0.25672406407E+04  0.00000000000E+00 0. -1.
         24    2    1    2    0    0 -0.18889187329E+03  0.41006545260E+02  0.84354658199E+02  0.22646913170E+03  0.82528072227E+02 0.  0.
         25    2    1    2    0    0 -0.10479417509E+03 -0.11365706716E+03 -0.76291257976E+02  0.21292509420E+03  0.12496796250E+03 0.  0.
         24    2    1    2    0    0  0.27230252328E+02  0.93880949205E+01 -0.28087135895E+02  0.90969938190E+02  0.81590560014E+02 0.  0.
        -13    1    5    5    0    0  0.38289254860E+02 -0.14138569781E+02  0.12573726780E+02  0.42709071616E+02  0.00000000000E+00 0.  1.
         14    1    5    5    0    0 -0.11059002532E+02  0.23526664701E+02 -0.40660862675E+02  0.48260866574E+02  0.00000000000E+00 0. -1.
        -13    1    3    3    0    0 -0.91054601350E+02  0.27817909954E+00  0.57306679499E-01  0.91055044312E+02  0.00000000000E+00 0.  1.
         14    1    3    3    0    0 -0.97837271936E+02  0.40728366160E+02  0.84297351520E+02  0.13541408739E+03  0.00000000000E+00 0. -1.
          5    1    4    4  501    0 -0.84706319589E+01 -0.88965140764E+02 -0.34227270895E+01  0.89556423207E+02  0.47000000000E+01 0. -1.
         -5    1    4    4    0  501 -0.96323543128E+02 -0.24691926397E+02 -0.72868530886E+02  0.12336867100E+03  0.47000000000E+01 0. -1.
          1    1    1    2  502    0  0.24121658564E+03 -0.28793973515E+02 -0.22848736363E+04  0.22977515244E+04  0.00000000000E+00 0. -1.
          1    1    1    2  503    0  0.25239210405E+02  0.92056400495E+02  0.31021362429E+04  0.31036044639E+04  0.00000000000E+00 0. -1.
<mgrwt>
<rscale>  0 0.11880176E+03</rscale>
<asrwt>0</asrwt>
<pdfrwt beam="1">  1        2 0.49477640E+00 0.95458405E+02</pdfrwt>
<pdfrwt beam="2">  1        2 0.37753539E+00 0.14785348E+03</pdfrwt>
<totfact> 0.13155332E+00</totfact>
</mgrwt>
</event>
<event>
13    1  0.1595792E-008  0.2052176E+03  0.7546771E-02  0.1231276E+00
          2   -1    0    0  503    0  0.00000000000E+00  0.00000000000E+00  0.15976718478E+04  0.15976718478E+04  0.00000000000E+00 0. -1.
          2   -1    0    0  502    0 -0.00000000000E+00 -0.00000000000E+00 -0.27658997375E+04  0.27658997375E+04  0.00000000000E+00 0. -1.
         24    2    1    2    0    0 -0.44039480410E+02  0.98860052330E+02  0.36253026871E+02  0.13915931064E+03  0.79613101937E+02 0.  0.
         25    2    1    2    0    0 -0.57127738059E+01 -0.15419469614E+03  0.89901493376E+01  0.19878062961E+03  0.12499710325E+03 0.  0.
         24    2    1    2    0    0  0.10647100631E+03  0.22680598745E+03  0.28760553752E+03  0.39012421856E+03  0.81871420938E+02 0.  0.
        -11    1    5    5    0    0  0.63668065252E+02  0.13500158670E+03  0.22825176110E+03  0.27272315155E+03  0.00000000000E+00 0.  1.
         12    1    5    5    0    0  0.42802941055E+02  0.91804400748E+02  0.59353776416E+02  0.11740106701E+03  0.00000000000E+00 0. -1.
        -11    1    3    3    0    0 -0.57507025551E+02  0.10138683392E+03  0.42543558702E+02  0.12408183778E+03  0.00000000000E+00 0.  1.
         12    1    3    3    0    0  0.13467545140E+02 -0.25267815870E+01 -0.62905318309E+01  0.15077472866E+02  0.00000000000E+00 0. -1.
          5    1    4    4  501    0  0.53550364927E+02 -0.79947344985E+02 -0.21858245058E+02  0.98788118876E+02  0.47000000000E+01 0.  1.
         -5    1    4    4    0  501 -0.59263138733E+02 -0.74247351159E+02  0.30848394396E+02  0.99992510737E+02  0.47000000000E+01 0.  1.
          1    1    1    2  502    0 -0.73379583440E+02  0.29702985875E+02 -0.25581286744E+04  0.25593532670E+04  0.00000000000E+00 0. -1.
          1    1    1    2  503    0  0.16660831349E+02 -0.20117432951E+03  0.10570520710E+04  0.10761541594E+04  0.00000000000E+00 0. -1.
<mgrwt>
<rscale>  0 0.12745864E+03</rscale>
<asrwt>0</asrwt>
<pdfrwt beam="1">  1        2 0.23495174E+00 0.20521759E+03</pdfrwt>
<pdfrwt beam="2">  1        2 0.40674996E+00 0.79163316E+02</pdfrwt>
<totfact> 0.83684218E+00</totfact>
</mgrwt>
</event>
<event>
13    1  0.1595792E-008  0.1458254E+03  0.7546771E-02  0.1355402E+00
          2   -1    0    0  502    0  0.00000000000E+00  0.00000000000E+00  0.18574756126E+04  0.18574756126E+04  0.00000000000E+00 0. -1.
          2   -1    0    0  503    0 -0.00000000000E+00 -0.00000000000E+00 -0.18529591476E+04  0.18529591476E+04  0.00000000000E+00 0. -1.
         24    2    1    2    0    0  0.88379037606E+03  0.30976342521E+03 -0.50402139539E+03  0.10678773281E+04  0.96361883101E+02 0.  0.
         25    2    1    2    0    0 -0.70356441523E+03 -0.29014107274E+03  0.96673429855E+02  0.77727435565E+03  0.12499977374E+03 0.  0.
         24    2    1    2    0    0 -0.15583162423E+03  0.13189387261E+03  0.50095117577E+03  0.54713596479E+03  0.82013381342E+02 0.  0.
        -11    1    5    5    0    0 -0.23421333093E+02 -0.96283266697E+01  0.43687168844E+02  0.50495863592E+02  0.00000000000E+00 0.  1.
         12    1    5    5    0    0 -0.13241029114E+03  0.14152219928E+03  0.45726400692E+03  0.49664010120E+03  0.00000000000E+00 0. -1.
        -13    1    3    3    0    0  0.19032332700E+03  0.52106550052E+02 -0.14929965680E+03  0.24744382974E+03  0.00000000000E+00 0.  1.
         14    1    3    3    0    0  0.69346704906E+03  0.25765687516E+03 -0.35472173859E+03  0.82043349839E+03  0.00000000000E+00 0. -1.
          5    1    4    4  501    0 -0.16117191285E+03 -0.77468162982E+02  0.75807489961E+02  0.19428475829E+03  0.47000000000E+01 0. -1.
         -5    1    4    4    0  501 -0.54239250238E+03 -0.21267290976E+03  0.20865939895E+02  0.58298959736E+03  0.47000000000E+01 0. -1.
          1    1    1    2  502    0  0.30787088864E+02 -0.16558737215E+02  0.60646814444E+03  0.60747481169E+03  0.00000000000E+00 0. -1.
          1    1    1    2  503    0 -0.55181425455E+02 -0.13495748786E+03 -0.69555488972E+03  0.71067229991E+03  0.00000000000E+00 0. -1.
<mgrwt>
<rscale>  0 0.71398253E+02</rscale>
<asrwt>0</asrwt>
<pdfrwt beam="1">  1        2 0.27315818E+00 0.34957640E+02</pdfrwt>
<pdfrwt beam="2">  1        2 0.27249399E+00 0.14582536E+03</pdfrwt>
<totfact> 0.19371376E+01</totfact>
</mgrwt>
</event>
<event>
13    1  0.1595792E-008  0.1034292E+03  0.7546771E-02  0.1309399E+00
          2   -1    0    0  502    0  0.00000000000E+00  0.00000000000E+00  0.40987483859E+04  0.40987483859E+04  0.00000000000E+00 0. -1.
          2   -1    0    0  503    0 -0.00000000000E+00 -0.00000000000E+00 -0.37417700720E+04  0.37417700720E+04  0.00000000000E+00 0. -1.
         24    2    1    2    0    0  0.21644360431E+03 -0.26926867801E+03 -0.63511683131E+03  0.72754048452E+03  0.81168419945E+02 0.  0.
         25    2    1    2    0    0  0.72523057969E+03  0.55933928328E+03 -0.76558622112E+03  0.12002364710E+04  0.12500198684E+03 0.  0.
         24    2    1    2    0    0 -0.10822102288E+04 -0.27477001075E+03  0.30841156238E+03  0.11604339856E+04  0.69367175821E+02 0.  0.
        -11    1    3    3    0    0  0.89215069107E+02 -0.10011297495E+03 -0.16996014324E+03  0.21649107741E+03  0.00000000000E+00 0.  1.
         12    1    3    3    0    0  0.12722853521E+03 -0.16915570307E+03 -0.46515668807E+03  0.51104940711E+03  0.00000000000E+00 0. -1.
        -11    1    5    5    0    0 -0.93194849795E+02 -0.65723109045E+01  0.35867711631E+02  0.10007481220E+03  0.00000000000E+00 0.  1.
         12    1    5    5    0    0 -0.98901537898E+03 -0.26819769985E+03  0.27254385075E+03  0.10603591734E+04  0.00000000000E+00 0. -1.
          5    1    4    4  501    0  0.27530796493E+03  0.14163921305E+03 -0.28011561987E+03  0.41754400094E+03  0.47000000000E+01 0. -1.
         -5    1    4    4    0  501  0.44992261476E+03  0.41770007023E+03 -0.48547060124E+03  0.78269247001E+03  0.47000000000E+01 0. -1.
          1    1    1    2  502    0  0.83089011754E+02 -0.61580991921E+02  0.30991018465E+04  0.31008270279E+04  0.00000000000E+00 0. -1.
          1    1    1    2  503    0  0.57447033015E+02  0.46280397408E+02 -0.16498320425E+04  0.16514804889E+04  0.00000000000E+00 0. -1.
<mgrwt>
<rscale>  0 0.87349788E+02</rscale>
<asrwt>0</asrwt>
<pdfrwt beam="1">  1        2 0.60275712E+00 0.10342915E+03</pdfrwt>
<pdfrwt beam="2">  1        2 0.55026031E+00 0.73770162E+02</pdfrwt>
<totfact> 0.11267802E-01</totfact>
</mgrwt>
</event>
<event>
13    1  0.1595792E-008  0.1580636E+03  0.7546771E-02  0.1386231E+00
          2   -1    0    0  502    0  0.00000000000E+00  0.00000000000E+00  0.66258099049E+03  0.66258099049E+03  0.00000000000E+00 0. -1.
          2   -1    0    0  503    0 -0.00000000000E+00 -0.00000000000E+00 -0.63015281487E+03  0.63015281487E+03  0.00000000000E+00 0. -1.
         24    2    1    2    0    0  0.79462178798E+02 -0.44782965787E+02 -0.18337036992E+01  0.12179695377E+03  0.80693144650E+02 0.  0.
         25    2    1    2    0    0 -0.12412230803E+03  0.61062688796E+01 -0.75743324230E+02  0.19184621069E+03  0.12499713404E+03 0.  0.
         24    2    1    2    0    0 -0.79870429376E+02 -0.27044495845E+02  0.62579635567E+02  0.13270832407E+03  0.81145537427E+02 0.  0.
        -13    1    3    3    0    0  0.41876988828E+02 -0.40874119150E+00  0.33606703058E+02  0.53695993827E+02  0.00000000000E+00 0.  1.
         14    1    3    3    0    0  0.37585189970E+02 -0.44374224596E+02 -0.35440406757E+02  0.68100959939E+02  0.00000000000E+00 0. -1.
        -13    1    5    5    0    0 -0.64147908085E+02  0.18166923947E+02  0.49645586683E+02  0.83124457980E+02  0.00000000000E+00 0.  1.
         14    1    5    5    0    0 -0.15722521290E+02 -0.45211419793E+02  0.12934048885E+02  0.49583866085E+02  0.00000000000E+00 0. -1.
          5    1    4    4  501    0 -0.37053313579E+01 -0.22756730104E+02 -0.63029714208E+02  0.67278771679E+02  0.47000000000E+01 0.  1.
         -5    1    4    4    0  501 -0.12041697667E+03  0.28862998984E+02 -0.12713610022E+02  0.12456743901E+03  0.47000000000E+01 0.  1.
          1    1    1    2  502    0  0.14952105687E+03  0.65318982009E+02  0.43159121832E+03  0.46140448154E+03  0.00000000000E+00 0. -1.
          1    1    1    2  503    0 -0.24990498263E+02  0.40221074413E+00 -0.38416565033E+03  0.38497783530E+03  0.00000000000E+00 0. -1.
<mgrwt>
<rscale>  0 0.62853793E+02</rscale>
<asrwt>0</asrwt>
<pdfrwt beam="1">  1        2 0.97438381E-01 0.15806358E+03</pdfrwt>
<pdfrwt beam="2">  1        2 0.92669531E-01 0.24993735E+02</pdfrwt>
<totfact> 0.39515295E+02</totfact>
</mgrwt>
</event>
<event>
13    1  0.1595792E-008  0.2069185E+03  0.7546771E-02  0.1227958E+00
          2   -1    0    0  502    0  0.00000000000E+00  0.00000000000E+00  0.25982915277E+04  0.25982915277E+04  0.00000000000E+00 0. -1.
          2   -1    0    0  503    0 -0.00000000000E+00 -0.00000000000E+00 -0.33483530376E+03  0.33483530376E+03  0.00000000000E+00 0. -1.
         24    2    1    2    0    0 -0.33051706083E+02 -0.12272359467E+03  0.25324610032E+02  0.15197903126E+03  0.79390138599E+02 0.  0.
         25    2    1    2    0    0 -0.86690493598E+01 -0.12363231147E+03  0.37700889617E+02  0.18001833968E+03  0.12500057875E+03 0.  0.
         24    2    1    2    0    0  0.25705744287E+02 -0.43709363338E+02  0.21807904065E+03  0.23801452521E+03  0.80753653224E+02 0.  0.
        -13    1    5    5    0    0 -0.15814359843E+02  0.16083122467E+02  0.52513080992E+02  0.57152291999E+02  0.00000000000E+00 0.  1.
         14    1    5    5    0    0  0.41520104130E+02 -0.59792485805E+02  0.16556595966E+03  0.18086223321E+03  0.00000000000E+00 0. -1.
        -13    1    3    3    0    0  0.51606909081E+01  0.10407204070E+01  0.21773843378E+02  0.22401251864E+02  0.00000000000E+00 0.  1.
         14    1    3    3    0    0 -0.38212396991E+02 -0.12376431508E+03  0.35507666543E+01  0.12957777940E+03  0.00000000000E+00 0. -1.
          5    1    4    4  501    0  0.17550000631E+02 -0.13103527459E+03  0.59263877208E+02  0.14495703795E+03  0.47000000000E+01 0. -1.
         -5    1    4    4    0  501 -0.26219049991E+02  0.74029631186E+01 -0.21562987591E+02  0.35061301733E+02  0.47000000000E+01 0. -1.
          1    1    1    2  502    0  0.19925940172E+02  0.93436619283E+02  0.21205789931E+04  0.21227300137E+04  0.00000000000E+00 0. -1.
          1    1    1    2  503    0 -0.39109290167E+01  0.19662865020E+03 -0.13822730949E+03  0.24038492160E+03  0.00000000000E+00 0. -1.
<mgrwt>
<rscale>  0 0.12966210E+03</rscale>
<asrwt>0</asrwt>
<pdfrwt beam="1">  1        2 0.38210168E+00 0.81250636E+02</pdfrwt>
<pdfrwt beam="2">  1        2 0.49240487E-01 0.20691849E+03</pdfrwt>
<totfact> 0.75817490E+01</totfact>
</mgrwt>
</event>
<event>
13    1  0.1595792E-008  0.1870754E+02  0.7546771E-02  0.1794437E+00
          2   -1    0    0  502    0  0.00000000000E+00  0.00000000000E+00  0.40257631805E+03  0.40257631805E+03  0.00000000000E+00 0. -1.
          2   -1    0    0  503    0 -0.00000000000E+00 -0.00000000000E+00 -0.13751898253E+04  0.13751898253E+04  0.00000000000E+00 0. -1.
         24    2    1    2    0    0  0.42243881195E+02  0.32434405814E+02 -0.47338533097E+03  0.48288283211E+03  0.79029246388E+02 0.  0.
         25    2    1    2    0    0 -0.43446879179E+02 -0.35486758309E+02 -0.10967994202E+03  0.17549879996E+03  0.12499279092E+03 0.  0.
         24    2    1    2    0    0  0.20418686588E+00  0.11945105682E+02 -0.77433384042E+02  0.11326171827E+03  0.81789734197E+02 0.  0.
        -11    1    3    3    0    0  0.29921132576E+02  0.58040687775E+02 -0.36719363382E+03  0.37295463575E+03  0.00000000000E+00 0.  1.
         12    1    3    3    0    0  0.12322748619E+02 -0.25606281961E+02 -0.10619169716E+03  0.10992819636E+03  0.00000000000E+00 0. -1.
        -11    1    5    5    0    0 -0.23912728067E+02 -0.82797584918E+01  0.43082217977E+01  0.25669704699E+02  0.00000000000E+00 0.  1.
         12    1    5    5    0    0  0.24116914933E+02  0.20224864174E+02 -0.81741605839E+02  0.87592013574E+02  0.00000000000E+00 0. -1.
          5    1    4    4  501    0 -0.15818107755E+02  0.20606417462E+02  0.18884124855E+02  0.32458236938E+02  0.47000000000E+01 0. -1.
         -5    1    4    4    0  501 -0.27628771424E+02 -0.56093175770E+02 -0.12856406688E+03  0.14304056303E+03  0.47000000000E+01 0. -1.
          1    1    1    2  502    0 -0.16629310161E+02 -0.25252218405E+01  0.34666678341E+03  0.34707458770E+03  0.00000000000E+00 0. -1.
          1    1    1    2  503    0  0.17628121279E+02 -0.63675313479E+01 -0.65878163363E+03  0.65904820531E+03  0.00000000000E+00 0. -1.
<mgrwt>
<rscale>  0 0.17738653E+02</rscale>
<asrwt>0</asrwt>
<pdfrwt beam="1">  1        2 0.59202400E-01 0.16819950E+02</pdfrwt>
<pdfrwt beam="2">  1        2 0.20223380E+00 0.18707535E+02</pdfrwt>
<totfact> 0.27163359E+02</totfact>
</mgrwt>
</event>
<event>
13    1  0.1595792E-008  0.1230299E+03  0.7546771E-02  0.1376040E+00
          2   -1    0    0  503    0  0.00000000000E+00  0.00000000000E+00  0.49984856531E+03  0.49984856531E+03  0.00000000000E+00 0. -1.
          2   -1    0    0  502    0 -0.00000000000E+00 -0.00000000000E+00 -0.15256039114E+04  0.15256039114E+04  0.00000000000E+00 0. -1.
         24    2    1    2    0    0  0.90825656878E+02 -0.10412937632E+03 -0.14891018597E+03  0.21829384652E+03  0.79910781370E+02 0.  0.
         25    2    1    2    0    0 -0.69222290631E+02  0.90822683277E+02 -0.17284682705E+03  0.24194839431E+03  0.12499005788E+03 0.  0.
         24    2    1    2    0    0  0.87304062444E+02  0.23955515065E+02  0.28688294286E+03  0.31179883153E+03  0.81980622194E+02 0.  0.
        -11    1    5    5    0    0  0.23269814480E+02  0.32453747101E+02  0.39681266565E+02  0.56296828357E+02  0.00000000000E+00 0.  1.
         12    1    5    5    0    0  0.64034247964E+02 -0.84982320363E+01  0.24720167630E+03  0.25550200317E+03  0.00000000000E+00 0. -1.
        -13    1    3    3    0    0  0.88284004977E+02 -0.79022172043E+02 -0.75079272161E+02  0.14026926362E+03  0.00000000000E+00 0.  1.
         14    1    3    3    0    0  0.25416519007E+01 -0.25107204280E+02 -0.73830913812E+02  0.78024582892E+02  0.00000000000E+00 0. -1.
          5    1    4    4  501    0 -0.67692622363E+02 -0.36323150640E+01 -0.39939136928E+02  0.78820742787E+02  0.47000000000E+01 0. -1.
         -5    1    4    4    0  501 -0.15296682680E+01  0.94454998341E+02 -0.13290769012E+03  0.16312765152E+03  0.47000000000E+01 0. -1.
          1    1    1    2  502    0 -0.11465616523E+03 -0.45060884734E+02 -0.11163783086E+04  0.11231549525E+04  0.00000000000E+00 0. -1.
          1    1    1    2  503    0  0.57487365408E+01  0.34412062717E+02  0.12549703265E+03  0.13025645181E+03  0.00000000000E+00 0. -1.
<mgrwt>
<rscale>  0 0.65516284E+02</rscale>
<asrwt>0</asrwt>
<pdfrwt beam="1">  1        2 0.73507140E-01 0.34888939E+02</pdfrwt>
<pdfrwt beam="2">  1        2 0.22435352E+00 0.12302993E+03</pdfrwt>
<totfact> 0.15962397E+02</totfact>
</mgrwt>
</event>
<event>
13    1  0.1595792E-008  0.1094606E+03  0.7546771E-02  0.1273580E+00
          2   -1    0    0  502    0  0.00000000000E+00  0.00000000000E+00  0.21925884097E+04  0.21925884097E+04  0.00000000000E+00 0. -1.
          2   -1    0    0  503    0 -0.00000000000E+00 -0.00000000000E+00 -0.13789833850E+04  0.13789833850E+04  0.00000000000E+00 0. -1.
         24    2    1    2    0    0 -0.46128102975E+01 -0.12079952868E+03 -0.59012112536E+03  0.60693788105E+03  0.74275464993E+02 0.  0.
         25    2    1    2    0    0 -0.63965551858E+01 -0.11890219618E+03 -0.43742494411E+02  0.17809337556E+03  0.12500078570E+03 0.  0.
         24    2    1    2    0    0  0.64140228092E+02  0.67138745604E+02  0.40898395725E+03  0.42705694936E+03  0.80549243835E+02 0.  0.
        -13    1    3    3    0    0 -0.13262898390E+02 -0.12310708340E+03 -0.58140368312E+03  0.59444217650E+03  0.00000000000E+00 0.  1.
         14    1    3    3    0    0  0.86500880927E+01  0.23075547236E+01 -0.87174422457E+01  0.12495704547E+02  0.00000000000E+00 0. -1.
        -13    1    5    5    0    0  0.62803684266E+02  0.20498059464E+02  0.31818201017E+03  0.32496809812E+03  0.00000000000E+00 0.  1.
         14    1    5    5    0    0  0.13365438264E+01  0.46640686140E+02  0.90801947086E+02  0.10208885124E+03  0.00000000000E+00 0. -1.
          5    1    4    4  501    0  0.32590903002E+02 -0.89370462475E+02  0.20290766724E+02  0.97380961875E+02  0.47000000000E+01 0. -1.
         -5    1    4    4    0  501 -0.38987458188E+02 -0.29531733708E+02 -0.64033261135E+02  0.80712413688E+02  0.47000000000E+01 0. -1.
          1    1    1    2  502    0  0.23077877624E+02  0.94643281878E+02  0.16930781455E+04  0.16958783996E+04  0.00000000000E+00 0. -1.
          1    1    1    2  503    0 -0.76208740233E+02  0.77919697379E+02 -0.65459345839E+03  0.66360518917E+03  0.00000000000E+00 0. -1.
<mgrwt>
<rscale>  0 0.10326302E+03</rscale>
<asrwt>0</asrwt>
<pdfrwt beam="1">  1        2 0.32243947E+00 0.97416319E+02</pdfrwt>
<pdfrwt beam="2">  1        2 0.20279167E+00 0.10946063E+03</pdfrwt>
<totfact> 0.21136812E+01</totfact>
</mgrwt>
</event>
<event>
13    1  0.1595792E-008  0.7216168E+02  0.7546771E-02  0.1416356E+00
          2   -1    0    0  503    0  0.00000000000E+00  0.00000000000E+00  0.15331405255E+04  0.15331405255E+04  0.00000000000E+00 0. -1.
          2   -1    0    0  502    0 -0.00000000000E+00 -0.00000000000E+00 -0.15335820282E+04  0.15335820282E+04  0.00000000000E+00 0. -1.
         24    2    1    2    0    0  0.42899085962E+01  0.28984850417E+02 -0.39141230838E+02  0.93368167273E+02  0.79542779930E+02 0.  0.
         25    2    1    2    0    0  0.10980724926E+03 -0.31043719950E+02  0.11846212459E+03  0.20658928729E+03  0.12499805647E+03 0.  0.
         24    2    1    2    0    0 -0.51881828310E+01  0.13760165558E+02  0.16649252777E+03  0.17777862618E+03  0.60574076364E+02 0.  0.
        -11    1    3    3    0    0 -0.17334418501E+02  0.13275525388E+02 -0.57123437118E+02  0.61153975401E+02  0.00000000000E+00 0.  1.
         12    1    3    3    0    0  0.21624327097E+02  0.15709325029E+02  0.17982206281E+02  0.32214191872E+02  0.00000000000E+00 0. -1.
        -13    1    5    5    0    0 -0.26988105627E+02 -0.65089754025E+01  0.11497881984E+03  0.11828293883E+03  0.00000000000E+00 0.  1.
         14    1    5    5    0    0  0.21799922796E+02  0.20269140960E+02  0.51513707931E+02  0.59495687356E+02  0.00000000000E+00 0. -1.
          5    1    4    4  501    0  0.82336974342E+02  0.29520240774E+02  0.23735621476E+02  0.90754017465E+02  0.47000000000E+01 0.  1.
         -5    1    4    4    0  501  0.27470274915E+02 -0.60563960724E+02  0.94726503118E+02  0.11583526983E+03  0.47000000000E+01 0.  1.
          1    1    1    2  502    0 -0.71332698142E+02  0.95048036559E+01 -0.14163095299E+04  0.14181365870E+04  0.00000000000E+00 0. -1.
          1    1    1    2  503    0 -0.37576276881E+02 -0.21206099680E+02  0.11700546056E+04  0.11708498859E+04  0.00000000000E+00 0. -1.
<mgrwt>
<rscale>  0 0.55799372E+02</rscale>
<asrwt>0</asrwt>
<pdfrwt beam="1">  1        2 0.22546184E+00 0.43147135E+02</pdfrwt>
<pdfrwt beam="2">  1        2 0.22552677E+00 0.72161684E+02</pdfrwt>
<totfact> 0.40737634E+01</totfact>
</mgrwt>
</event>
<event>
13    1  0.1595792E-008  0.1351962E+03  0.7546771E-02  0.1323134E+00
          2   -1    0    0  502    0  0.00000000000E+00  0.00000000000E+00  0.22436716637E+04  0.22436716637E+04  0.00000000000E+00 0. -1.
          2   -1    0    0  503    0 -0.00000000000E+00 -0.00000000000E+00 -0.58491599367E+03  0.58491599367E+03  0.00000000000E+00 0. -1.
         24    2    1    2    0    0 -0.62840626933E+02 -0.10024186584E+03 -0.14803828075E+03  0.20603936379E+03  0.80867241830E+02 0.  0.
         25    2    1    2    0    0  0.14282619708E+03 -0.35902914035E+02 -0.28480853397E+03  0.34413463136E+03  0.12499760665E+03 0.  0.
         24    2    1    2    0    0 -0.35794153166E+02 -0.12221235195E+03  0.29377025677E+03  0.33025324831E+03  0.80926904604E+02 0.  0.
        -11    1    3    3    0    0 -0.56146018386E+02 -0.10240009775E+03 -0.15635059599E+03  0.19515036322E+03  0.00000000000E+00 0.  1.
         12    1    3    3    0    0 -0.66946085466E+01  0.21582319092E+01  0.83123152408E+01  0.10889000562E+02  0.00000000000E+00 0. -1.
        -13    1    5    5    0    0 -0.50026659666E+02 -0.41221735360E+02  0.93639966639E+02  0.11388740710E+03  0.00000000000E+00 0.  1.
         14    1    5    5    0    0  0.14232506500E+02 -0.80990616589E+02  0.20013029013E+03  0.21636584121E+03  0.00000000000E+00 0. -1.
          5    1    4    4  501    0  0.11227287992E+03  0.14950108934E+02 -0.10420528356E+03  0.15397901300E+03  0.47000000000E+01 0. -1.
         -5    1    4    4    0  501  0.30553317164E+02 -0.50853022969E+02 -0.18060325041E+03  0.19015561836E+03  0.47000000000E+01 0. -1.
          1    1    1    2  502    0 -0.41790835045E+02  0.20853139381E+03  0.18579267088E+04  0.18700597507E+04  0.00000000000E+00 0. -1.
          1    1    1    2  503    0 -0.24005819392E+01  0.49825738017E+02 -0.60094480812E+02  0.78100663164E+02  0.00000000000E+00 0. -1.
<mgrwt>
<rscale>  0 0.82122248E+02</rscale>
<asrwt>0</asrwt>
<pdfrwt beam="1">  1        2 0.32995171E+00 0.13519619E+03</pdfrwt>
<pdfrwt beam="2">  1        2 0.86017059E-01 0.49883534E+02</pdfrwt>
<totfact> 0.59410936E+01</totfact>
</mgrwt>
</event>
<event>
13    1  0.1595792E-008  0.1354813E+03  0.7546771E-02  0.1365819E+00
          2   -1    0    0  503    0  0.00000000000E+00  0.00000000000E+00  0.26371209464E+04  0.26371209464E+04  0.00000000000E+00 0. -1.
         -3   -1    0    0    0  501 -0.00000000000E+00 -0.00000000000E+00 -0.53274263503E+03  0.53274263503E+03  0.00000000000E+00 0.  1.
         24    2    1    2    0    0  0.42642566454E+02  0.37685609332E+02  0.31811997212E+01  0.97950207520E+02  0.79658831884E+02 0.  0.
         25    2    1    2    0    0 -0.41698020985E+01  0.35930132082E+03  0.72350103374E+02  0.38726504997E+03  0.12499942031E+03 0.  0.
         24    2    1    2    0    0 -0.12958566340E+03 -0.25570941810E+03  0.10371939576E+04  0.10790570121E+04  0.80081076722E+02 0.  0.
        -11    1    5    5    0    0 -0.33309517381E+02 -0.16596723009E+02  0.89406186786E+02  0.96842353329E+02  0.00000000000E+00 0.  1.
         12    1    5    5    0    0 -0.96276146015E+02 -0.23911269510E+03  0.94778777086E+03  0.98221465874E+03  0.00000000000E+00 0. -1.
        -13    1    3    3    0    0 -0.21173419778E+02  0.21520808352E+01 -0.10349736239E+02  0.23665633253E+02  0.00000000000E+00 0.  1.
         14    1    3    3    0    0  0.63815986232E+02  0.35533528496E+02  0.13530935960E+02  0.74284574268E+02  0.00000000000E+00 0. -1.
          5    1    4    4  502    0 -0.26190890332E+02  0.18445294443E+02 -0.13443404060E+02  0.35057192360E+02  0.47000000000E+01 0. -1.
         -5    1    4    4    0  502  0.22021088234E+02  0.34085602638E+03  0.85793507434E+02  0.35220785761E+03  0.47000000000E+01 0. -1.
          1    1    1    2  503    0  0.65615155847E+02 -0.11807326648E+03  0.12941276340E+04  0.13011583217E+04  0.00000000000E+00 0. -1.
         -4    1    1    2    0  501  0.25497743194E+02 -0.23204245564E+02 -0.30247458340E+03  0.30443299020E+03  0.00000000000E+00 0.  1.
<mgrwt>
<rscale>  0 0.68343311E+02</rscale>
<asrwt>0</asrwt>
<pdfrwt beam="1">  1        2 0.38781190E+00 0.13548128E+03</pdfrwt>
<pdfrwt beam="2">  1       -3 0.78344506E-01 0.34475671E+02</pdfrwt>
<totfact> 0.38776284E+00</totfact>
</mgrwt>
</event>
<event>
13    1  0.1595792E-008  0.2470055E+03  0.7546771E-02  0.1223528E+00
          2   -1    0    0  503    0  0.00000000000E+00  0.00000000000E+00  0.20491342643E+04  0.20491342643E+04  0.00000000000E+00 0. -1.
          2   -1    0    0  502    0 -0.00000000000E+00 -0.00000000000E+00 -0.31680158625E+04  0.31680158625E+04  0.00000000000E+00 0. -1.
         24    2    1    2    0    0  0.20028355749E+03  0.22572667440E+03 -0.76430464071E+03  0.82586293095E+03  0.82595169151E+02 0.  0.
         25    2    1    2    0    0 -0.32360413661E+03 -0.57024211895E+03  0.71824659219E+03  0.98050810413E+03  0.12498905404E+03 0.  0.
         24    2    1    2    0    0  0.11154894018E+02  0.75069192233E+02  0.60568839236E+01  0.11022615930E+03  0.79707622395E+02 0.  0.
        -11    1    5    5    0    0  0.38404788195E+02  0.24474564647E+02  0.22018912518E+02  0.50584232518E+02  0.00000000000E+00 0.  1.
         12    1    5    5    0    0 -0.27249894178E+02  0.50594627586E+02 -0.15962028595E+02  0.59641926780E+02  0.00000000000E+00 0. -1.
        -11    1    3    3    0    0  0.16131352388E+03  0.14484472337E+03 -0.60947067225E+03  0.64688217413E+03  0.00000000000E+00 0.  1.
         12    1    3    3    0    0  0.38970033605E+02  0.80881951031E+02 -0.15483396846E+03  0.17898075682E+03  0.00000000000E+00 0. -1.
          5    1    4    4  501    0  0.22125842849E+00 -0.32844183602E+02  0.10768946860E+02  0.34883370941E+02  0.47000000000E+01 0.  1.
         -5    1    4    4    0  501 -0.32382539504E+03 -0.53739793535E+03  0.70747764533E+03  0.94562473319E+03  0.47000000000E+01 0.  1.
          1    1    1    2  502    0  0.46529820538E+02  0.24166555637E+03 -0.21816476718E+04  0.21954848733E+04  0.00000000000E+00 0. -1.
          1    1    1    2  503    0  0.65635864567E+02  0.27780695945E+02  0.11027672381E+04  0.11050680591E+04  0.00000000000E+00 0. -1.
<mgrwt>
<rscale>  0 0.13268312E+03</rscale>
<asrwt>0</asrwt>
<pdfrwt beam="1">  1        2 0.30134328E+00 0.71272953E+02</pdfrwt>
<pdfrwt beam="2">  1        2 0.46588468E+00 0.24700549E+03</pdfrwt>
<totfact> 0.28629924E+00</totfact>
</mgrwt>
</event>
<event>
13    1  0.1771455E-008  0.8235160E+02  0.7546771E-02  0.1332907E+00
          2   -1    0    0  503    0  0.00000000000E+00  0.00000000000E+00  0.15513796826E+04  0.15513796826E+04  0.00000000000E+00 0. -1.
          2   -1    0    0  502    0 -0.00000000000E+00 -0.00000000000E+00 -0.32352653728E+04  0.32352653728E+04  0.00000000000E+00 0. -1.
         24    2    1    2    0    0 -0.46016620483E+03 -0.82475479348E+03 -0.62189119853E+03  0.11337206420E+04  0.81243004259E+02 0.  0.
         25    2    1    2    0    0 -0.36472247686E+03  0.10246919289E+04 -0.54184067091E+03  0.12215707476E+04  0.12501097676E+03 0.  0.
         24    2    1    2    0    0  0.91981710928E+03 -0.27476290185E+03 -0.19988407012E+03  0.98670471914E+03  0.10988354989E+03 0.  0.
        -11    1    5    5    0    0  0.19434496570E+03 -0.10599164318E+03 -0.42368522108E+02  0.22538696897E+03  0.00000000000E+00 0.  1.
         12    1    5    5    0    0  0.72547214357E+03 -0.16877125868E+03 -0.15751554801E+03  0.76131775017E+03  0.00000000000E+00 0. -1.
        -13    1    3    3    0    0 -0.24250674556E+03 -0.37398984494E+03 -0.32620356376E+03  0.55234653141E+03  0.00000000000E+00 0.  1.
         14    1    3    3    0    0 -0.21765945928E+03 -0.45076494854E+03 -0.29568763478E+03  0.58137411054E+03  0.00000000000E+00 0. -1.
          5    1    4    4  501    0 -0.32481760099E+03  0.80786227040E+03 -0.47097252745E+03  0.98994198490E+03  0.47000000000E+01 0. -1.
         -5    1    4    4    0  501 -0.39904875864E+02  0.21682965854E+03 -0.70868143462E+02  0.23162876268E+03  0.47000000000E+01 0. -1.
          1    1    1    2  502    0 -0.19969906891E+02  0.79866862443E+02 -0.87801524810E+03  0.88186636674E+03  0.00000000000E+00 0. -1.
          1    1    1    2  503    0 -0.74958520696E+02 -0.50410960523E+01  0.55774549741E+03  0.56278258001E+03  0.00000000000E+00 0. -1.
<mgrwt>
<rscale>  0 0.78656837E+02</rscale>
<asrwt>0</asrwt>
<pdfrwt beam="1">  1        2 0.22814407E+00 0.75127841E+02</pdfrwt>
<pdfrwt beam="2">  1        2 0.47577432E+00 0.82351601E+02</pdfrwt>
<totfact> 0.53607552E+00</totfact>
</mgrwt>
</event>
<event>
13    1  0.1595792E-008  0.1314814E+03  0.7546771E-02  0.1281490E+00
         -1   -1    0    0    0  501 -0.00000000000E+00  0.00000000000E+00  0.10668256905E+04  0.10668256905E+04  0.00000000000E+00 0.  1.
          2   -1    0    0  503    0  0.00000000000E+00 -0.00000000000E+00 -0.58178018209E+03  0.58178018209E+03  0.00000000000E+00 0. -1.
         24    2    1    2    0    0  0.63445659330E+02 -0.25436229562E+02  0.38424588424E+03  0.39858664603E+03  0.80957157654E+02 0.  0.
         25    2    1    2    0    0  0.13650429889E+03  0.16094451671E+03  0.79852629919E+02  0.25794627819E+03  0.12499311522E+03 0.  0.
         24    2    1    2    0    0  0.11348450769E+02  0.46070527037E+02 -0.52070830323E+02  0.10762093272E+03  0.81361004130E+02 0.  0.
        -11    1    5    5    0    0  0.23512741917E+02  0.60330627178E+02 -0.15581249138E+02  0.66598865853E+02  0.00000000000E+00 0.  1.
         12    1    5    5    0    0 -0.12164291148E+02 -0.14260100141E+02 -0.36489581185E+02  0.41022066869E+02  0.00000000000E+00 0. -1.
        -11    1    3    3    0    0  0.16866910505E+02 -0.49818660680E+02  0.21635754374E+03  0.22265888340E+03  0.00000000000E+00 0.  1.
         12    1    3    3    0    0  0.46578748825E+02  0.24382431118E+02  0.16788834050E+03  0.17592776264E+03  0.00000000000E+00 0. -1.
          5    1    4    4  502    0  0.12369185922E+03  0.11762690150E+03  0.55306966302E+01  0.17084625427E+03  0.47000000000E+01 0.  1.
         -5    1    4    4    0  502  0.12812439665E+02  0.43317615213E+02  0.74321933289E+02  0.87100023914E+02  0.47000000000E+01 0.  1.
          1    1    1    2  503    0 -0.13797140795E+03 -0.16490662385E+03 -0.37386664022E+03  0.43128478836E+03  0.00000000000E+00 0. -1.
         -2    1    1    2    0  501 -0.73327001041E+02 -0.16672190338E+02  0.44688446481E+03  0.45316722731E+03  0.00000000000E+00 0.  1.
<mgrwt>
<rscale>  0 0.99434398E+02</rscale>
<asrwt>0</asrwt>
<pdfrwt beam="2">  1        2 0.85555909E-01 0.13148138E+03</pdfrwt>
<pdfrwt beam="1">  1       -1 0.15688613E+00 0.75198477E+02</pdfrwt>
<totfact> 0.23626937E+01</totfact>
</mgrwt>
</event>
<event>
13    1  0.1595792E-008  0.9285624E+02  0.7546771E-02  0.1298140E+00
          2   -1    0    0  503    0  0.00000000000E+00  0.00000000000E+00  0.30182749892E+04  0.30182749892E+04  0.00000000000E+00 0. -1.
          2   -1    0    0  502    0 -0.00000000000E+00 -0.00000000000E+00 -0.12071572340E+04  0.12071572340E+04  0.00000000000E+00 0. -1.
         24    2    1    2    0    0  0.34649660710E+01  0.47693990739E+02 -0.13739098625E+02  0.94259896796E+02  0.80058994313E+02 0.  0.
         25    2    1    2    0    0  0.41961947770E+02  0.19066369552E+03 -0.57233815517E+02  0.23877047459E+03  0.12498871968E+03 0.  0.
         24    2    1    2    0    0 -0.60673861452E+02 -0.15293007033E+02  0.15238577567E+04  0.15272967391E+04  0.81102856138E+02 0.  0.
        -11    1    5    5    0    0 -0.57729996557E+02  0.23609049122E+02  0.82767841394E+03  0.83002511806E+03  0.00000000000E+00 0.  1.
         12    1    5    5    0    0 -0.29438648955E+01 -0.38902056155E+02  0.69617934273E+03  0.69727162108E+03  0.00000000000E+00 0. -1.
        -13    1    3    3    0    0  0.26774058251E+02  0.58115180603E+02  0.24402684269E+01  0.64032642626E+02  0.00000000000E+00 0.  1.
         14    1    3    3    0    0 -0.23309092179E+02 -0.10421189864E+02 -0.16179367052E+02  0.30227254169E+02  0.00000000000E+00 0. -1.
          5    1    4    4  501    0  0.66586696405E+02  0.15974004026E+03 -0.51337625330E+01  0.17320252342E+03  0.47000000000E+01 0.  1.
         -5    1    4    4    0  501 -0.24624748636E+02  0.30923655263E+02 -0.52100052984E+02  0.65567951174E+02  0.47000000000E+01 0.  1.
          1    1    1    2  502    0  0.86411746270E+01 -0.13220393200E+03 -0.99752766116E+03  0.10062872275E+04  0.00000000000E+00 0. -1.
          1    1    1    2  503    0  0.66057729844E+01 -0.90860747233E+02  0.13557605738E+04  0.13588178852E+04  0.00000000000E+00 0. -1.
<mgrwt>
<rscale>  0 0.91974208E+02</rscale>
<asrwt>0</asrwt>
<pdfrwt beam="1">  1        2 0.44386397E+00 0.91100558E+02</pdfrwt>
<pdfrwt beam="2">  1        2 0.17752312E+00 0.92856237E+02</pdfrwt>
<totfact> 0.10142464E+01</totfact>
</mgrwt>
</event>
<event>
13    1  0.1595792E-008  0.5606555E+03  0.7546771E-02  0.1175345E+00
          2   -1    0    0  502    0  0.00000000000E+00  0.00000000000E+00  0.17206927059E+04  0.17206927059E+04  0.00000000000E+00 0. -1.
          2   -1    0    0  503    0 -0.00000000000E+00 -0.00000000000E+00 -0.17750586862E+04  0.17750586862E+04  0.00000000000E+00 0. -1.
         24    2    1    2    0    0  0.25194883133E+02 -0.16956103901E+03  0.10718420142E+02  0.18959595423E+03  0.80287067710E+02 0.  0.
         25    2    1    2    0    0 -0.17301069108E+03  0.75340042336E+03 -0.28045864909E+03  0.83176157926E+03  0.12500149494E+03 0.  0.
         24    2    1    2    0    0  0.32123588226E+02 -0.42462853810E+02  0.22678964220E+02  0.99858915811E+02  0.81378429418E+02 0.  0.
        -11    1    3    3    0    0  0.11008353543E+02  0.42896288732E+01 -0.78456339657E+01  0.14182338874E+02  0.00000000000E+00 0.  1.
         12    1    3    3    0    0  0.14186529590E+02 -0.17385066789E+03  0.18564054108E+02  0.17541361535E+03  0.00000000000E+00 0. -1.
        -13    1    5    5    0    0 -0.12753971612E+02  0.45154504772E+01  0.31510667731E+02  0.34292495765E+02  0.00000000000E+00 0.  1.
         14    1    5    5    0    0  0.44877559839E+02 -0.46978304287E+02 -0.88317035111E+01  0.65566420046E+02  0.00000000000E+00 0. -1.
          5    1    4    4  501    0 -0.56480113943E+02  0.32474260079E+03 -0.57202877166E+02  0.33457737401E+03  0.47000000000E+01 0.  1.
         -5    1    4    4    0  501 -0.11653057714E+03  0.42865782256E+03 -0.22325577192E+03  0.49718420525E+03  0.47000000000E+01 0.  1.
          1    1    1    2  502    0  0.16140628351E+03 -0.51450609971E+03  0.12262746650E+04  0.13395962336E+04  0.00000000000E+00 0. -1.
          1    1    1    2  503    0 -0.45714063789E+02 -0.26870430822E+02 -0.10335793807E+04  0.10349387092E+04  0.00000000000E+00 0. -1.
<mgrwt>
<rscale>  0 0.17242252E+03</rscale>
<asrwt>0</asrwt>
<pdfrwt beam="1">  1        2 0.25304304E+00 0.56065551E+03</pdfrwt>
<pdfrwt beam="2">  1        2 0.26103804E+00 0.53026368E+02</pdfrwt>
<totfact> 0.21091356E+01</totfact>
</mgrwt>
</event>
<event>
13    1  0.1595792E-008  0.1148022E+03  0.7546771E-02  0.1310174E+00
          2   -1    0    0  502    0  0.00000000000E+00  0.00000000000E+00  0.22341151676E+03  0.22341151676E+03  0.00000000000E+00 0. -1.
          2   -1    0    0  503    0 -0.00000000000E+00 -0.00000000000E+00 -0.47207490539E+04  0.47207490539E+04  0.00000000000E+00 0. -1.
         24    2    1    2    0    0 -0.14919733372E+02 -0.26370778510E+02 -0.13495741484E+04  0.13523947961E+04  0.81873597935E+02 0.  0.
         25    2    1    2    0    0  0.14707155740E+02 -0.67152183005E+02 -0.80288520979E+03  0.81545966408E+03  0.12499635006E+03 0.  0.
         24    2    1    2    0    0 -0.30541331669E+02  0.51384250589E+02 -0.21535182841E+03  0.23746072108E+03  0.80237584122E+02 0.  0.
        -11    1    3    3    0    0 -0.25059778050E+02  0.21451621223E+02 -0.32876715992E+03  0.33041793228E+03  0.00000000000E+00 0.  1.
         12    1    3    3    0    0  0.10140044678E+02 -0.47822399733E+02 -0.10208069885E+04  0.10219768638E+04  0.00000000000E+00 0. -1.
        -13    1    5    5    0    0 -0.54469436478E+02  0.42419805628E+02 -0.18677376222E+03  0.19912508048E+03  0.00000000000E+00 0.  1.
         14    1    5    5    0    0  0.23928104809E+02  0.89644449616E+01 -0.28578066188E+02  0.38335640600E+02  0.00000000000E+00 0. -1.
          5    1    4    4  501    0  0.40578026508E+02 -0.94695551344E+02 -0.63413427894E+03  0.64246571691E+03  0.47000000000E+01 0. -1.
         -5    1    4    4    0  501 -0.25870870769E+02  0.27543368339E+02 -0.16875093084E+03  0.17299394716E+03  0.47000000000E+01 0. -1.
          1    1    1    2  502    0  0.85393757114E+02  0.79152902237E+02  0.18759080664E+03  0.22078855591E+03  0.00000000000E+00 0. -1.
          1    1    1    2  503    0 -0.54639847812E+02 -0.37014191311E+02 -0.23171171572E+04  0.23180568335E+04  0.00000000000E+00 0. -1.
<mgrwt>
<rscale>  0 0.87043473E+02</rscale>
<asrwt>0</asrwt>
<pdfrwt beam="1">  1        2 0.32854635E-01 0.11480221E+03</pdfrwt>
<pdfrwt beam="2">  1        2 0.69422781E+00 0.65996692E+02</pdfrwt>
<totfact> 0.56612932E+00</totfact>
</mgrwt>
</event>
<event>
13    1  0.1595792E-008  0.7542980E+02  0.7546771E-02  0.1418809E+00
          2   -1    0    0  503    0  0.00000000000E+00  0.00000000000E+00  0.19236675817E+04  0.19236675817E+04  0.00000000000E+00 0. -1.
          2   -1    0    0  502    0 -0.00000000000E+00 -0.00000000000E+00 -0.56204015217E+03  0.56204015217E+03  0.00000000000E+00 0. -1.
         24    2    1    2    0    0  0.27596349555E+02  0.33753494581E+02  0.52694567376E+02  0.10560203557E+03  0.80462510407E+02 0.  0.
         25    2    1    2    0    0 -0.10907008116E+03 -0.55761478606E+02  0.10472922783E+03  0.20395726483E+03  0.12499891845E+03 0.  0.
         24    2    1    2    0    0  0.40955990341E+02  0.74946641349E+02  0.27644675319E+03  0.30241060358E+03  0.87948698776E+02 0.  0.
        -11    1    3    3    0    0 -0.23102495194E+02 -0.76316806747E+01  0.23889135749E+02  0.34097780587E+02  0.00000000000E+00 0.  1.
         12    1    3    3    0    0  0.50698844750E+02  0.41385175255E+02  0.28805431626E+02  0.71504254985E+02  0.00000000000E+00 0. -1.
        -13    1    5    5    0    0 -0.20244692585E+02 -0.29418657636E+01  0.25980701860E+02  0.33068096727E+02  0.00000000000E+00 0.  1.
         14    1    5    5    0    0  0.61200682926E+02  0.77888507113E+02  0.25046605133E+03  0.26934250686E+03  0.00000000000E+00 0. -1.
          5    1    4    4  501    0 -0.35318261518E+02  0.25867334999E+02 -0.97725594418E+01  0.45100903923E+02  0.47000000000E+01 0.  1.
         -5    1    4    4    0  501 -0.73751819646E+02 -0.81628813604E+02  0.11450178727E+03  0.15885636090E+03  0.47000000000E+01 0.  1.
          1    1    1    2  502    0 -0.30440688788E+02 -0.26719144747E+02 -0.47109950714E+03  0.47283749201E+03  0.00000000000E+00 0. -1.
          1    1    1    2  503    0  0.70958430056E+02 -0.26219512577E+02  0.13988563883E+04  0.14009003379E+04  0.00000000000E+00 0. -1.
<mgrwt>
<rscale>  0 0.55273723E+02</rscale>
<asrwt>0</asrwt>
<pdfrwt beam="1">  1        2 0.28289229E+00 0.75429796E+02</pdfrwt>
<pdfrwt beam="2">  1        2 0.82652964E-01 0.40503682E+02</pdfrwt>
<totfact> 0.94545090E+01</totfact>
</mgrwt>
</event>
<event>
13    1  0.1595792E-008  0.1348349E+03  0.7546771E-02  0.1278028E+00
          2   -1    0    0  502    0  0.00000000000E+00  0.00000000000E+00  0.11535009384E+04  0.11535009384E+04  0.00000000000E+00 0. -1.
          2   -1    0    0  503    0 -0.00000000000E+00 -0.00000000000E+00 -0.20629116452E+04  0.20629116452E+04  0.00000000000E+00 0. -1.
         24    2    1    2    0    0 -0.68443420458E+02 -0.83504245314E+02 -0.11320782148E+03  0.17596998134E+03  0.80572716842E+02 0.  0.
         25    2    1    2    0    0  0.13669434639E+03  0.31575404100E+03 -0.38401773402E+03  0.53054667240E+03  0.12499677123E+03 0.  0.
         24    2    1    2    0    0  0.37550040754E+02 -0.58163393551E+02  0.32935351870E+01  0.10552745040E+03  0.79575181461E+02 0.  0.
        -11    1    5    5    0    0  0.78378169723E+01 -0.64351678930E+02  0.23623907896E+02  0.68997528798E+02  0.00000000000E+00 0.  1.
         12    1    5    5    0    0  0.29712223782E+02  0.61882853791E+01 -0.20330372709E+02  0.36529921605E+02  0.00000000000E+00 0. -1.
        -13    1    3    3    0    0  0.54010039966E+01  0.12483936019E+02 -0.12126560389E+02  0.18222869411E+02  0.00000000000E+00 0.  1.
         14    1    3    3    0    0 -0.73844424455E+02 -0.95988181333E+02 -0.10108126109E+03  0.15774711193E+03  0.00000000000E+00 0. -1.
          5    1    4    4  501    0  0.36676357024E+02  0.35155508174E+01 -0.27847432200E+02  0.46422879512E+02  0.47000000000E+01 0.  1.
         -5    1    4    4    0  501  0.10001798937E+03  0.31223849018E+03 -0.35617030182E+03  0.48412379289E+03  0.47000000000E+01 0.  1.
          1    1    1    2  502    0 -0.20659112678E+02 -0.72914602994E+02  0.98989301083E+03  0.99278976181E+03  0.00000000000E+00 0. -1.
          1    1    1    2  503    0 -0.85141854007E+02 -0.10117179914E+03 -0.14053716974E+04  0.14115787176E+04  0.00000000000E+00 0. -1.
<mgrwt>
<rscale>  0 0.10108629E+03</rscale>
<asrwt>0</asrwt>
<pdfrwt beam="1">  1        2 0.16963249E+00 0.75784816E+02</pdfrwt>
<pdfrwt beam="2">  1        2 0.30336936E+00 0.13483491E+03</pdfrwt>
<totfact> 0.31613634E+01</totfact>
</mgrwt>
</event>
<event>
13    1  0.1595792E-008  0.8822625E+02  0.7546771E-02  0.1333891E+00
          2   -1    0    0  503    0  0.00000000000E+00  0.00000000000E+00  0.11961052131E+04  0.11961052131E+04  0.00000000000E+00 0. -1.
          2   -1    0    0  502    0 -0.00000000000E+00 -0.00000000000E+00 -0.20547513693E+04  0.20547513693E+04  0.00000000000E+00 0. -1.
         24    2    1    2    0    0  0.70631260096E+02  0.64165698667E+02  0.38450711867E+02  0.12924668571E+03  0.78231941914E+02 0.  0.
         25    2    1    2    0    0  0.11950669187E+03 -0.56352822392E+02  0.23596824938E+03  0.29793052440E+03  0.12499637058E+03 0.  0.
         24    2    1    2    0    0 -0.11400346780E+03  0.28779156810E+02  0.48535365319E+03  0.50584870008E+03  0.80558725008E+02 0.  0.
        -11    1    3    3    0    0  0.86887152384E+02  0.44063090705E+02  0.32690428461E+02  0.10275990135E+03  0.00000000000E+00 0.  1.
         12    1    3    3    0    0 -0.16255892288E+02  0.20102607962E+02  0.57602834057E+01  0.26486784362E+02  0.00000000000E+00 0. -1.
        -13    1    5    5    0    0 -0.77095381384E+02  0.40060031368E+02  0.20218271364E+03  0.22005988648E+03  0.00000000000E+00 0.  1.
         14    1    5    5    0    0 -0.36908086412E+02 -0.11280874559E+02  0.28317093955E+03  0.28578881360E+03  0.00000000000E+00 0. -1.
          5    1    4    4  501    0  0.13660799813E+03 -0.16885096850E+02  0.16640757773E+03  0.21601023951E+03  0.47000000000E+01 0. -1.
         -5    1    4    4    0  501 -0.17101306254E+02 -0.39467725542E+02  0.69560671650E+02  0.81920284884E+02  0.47000000000E+01 0. -1.
          1    1    1    2  502    0 -0.48935410772E+02  0.49385614368E+02 -0.19616852405E+04  0.19629168592E+04  0.00000000000E+00 0. -1.
          1    1    1    2  503    0 -0.27199073403E+02 -0.85977647453E+02  0.34326646982E+03  0.35491381314E+03  0.00000000000E+00 0. -1.
<mgrwt>
<rscale>  0 0.78318957E+02</rscale>
<asrwt>0</asrwt>
<pdfrwt beam="1">  1        2 0.17589783E+00 0.88226254E+02</pdfrwt>
<pdfrwt beam="2">  1        2 0.30216931E+00 0.69524192E+02</pdfrwt>
<totfact> 0.32227450E+01</totfact>
</mgrwt>
</event>
<event>
13    1  0.1595792E-008  0.3967381E+03  0.7546771E-02  0.1275990E+00
          2   -1    0    0  502    0  0.00000000000E+00  0.00000000000E+00  0.12626787527E+04  0.12626787527E+04  0.00000000000E+00 0. -1.
          2   -1    0    0  503    0 -0.00000000000E+00 -0.00000000000E+00 -0.37500310500E+04  0.37500310500E+04  0.00000000000E+00 0. -1.
         24    2    1    2    0    0 -0.12677978737E+03  0.18936837798E+03 -0.64021920805E+03  0.68448789233E+03  0.81911802061E+02 0.  0.
         25    2    1    2    0    0  0.52460591457E+03 -0.33948159260E+02 -0.12737656669E+04  0.13836428342E+04  0.12499870181E+03 0.  0.
         24    2    1    2    0    0 -0.33513843783E+02 -0.85589973966E+02 -0.46854559710E+02  0.12892408561E+03  0.77312668529E+02 0.  0.
        -11    1    5    5    0    0 -0.56603041342E+02 -0.41907187109E+02 -0.31778780001E+02  0.77265823485E+02  0.00000000000E+00 0.  1.
         12    1    5    5    0    0  0.23089197558E+02 -0.43682786857E+02 -0.15075779709E+02  0.51658262121E+02  0.00000000000E+00 0. -1.
        -13    1    3    3    0    0 -0.64686739277E+02  0.14809664299E+03 -0.36169031245E+03  0.39615258679E+03  0.00000000000E+00 0.  1.
         14    1    3    3    0    0 -0.62093048097E+02  0.41271734991E+02 -0.27852889560E+03  0.28833530553E+03  0.00000000000E+00 0. -1.
          5    1    4    4  501    0  0.23114992245E+03 -0.37038535933E+02 -0.42033064673E+03  0.48114663292E+03  0.47000000000E+01 0. -1.
         -5    1    4    4    0  501  0.29345599212E+03  0.30903766734E+01 -0.85343502017E+03  0.90249620132E+03  0.47000000000E+01 0. -1.
          1    1    1    2  502    0 -0.38427604528E+03 -0.86894557178E+02  0.11105593629E+04  0.11783721151E+04  0.00000000000E+00 0. -1.
          1    1    1    2  503    0  0.19963761865E+02  0.17064312421E+02 -0.16370722256E+04  0.16372828755E+04  0.00000000000E+00 0. -1.
<mgrwt>
<rscale>  0 0.10207601E+03</rscale>
<asrwt>0</asrwt>
<pdfrwt beam="1">  1        2 0.18568806E+00 0.39673807E+03</pdfrwt>
<pdfrwt beam="2">  1        2 0.55147514E+00 0.26262950E+02</pdfrwt>
<totfact> 0.43146042E+00</totfact>
</mgrwt>
</event>
<event>
13    1  0.1595792E-008  0.2252781E+03  0.7546771E-02  0.1271146E+00
          2   -1    0    0  502    0  0.00000000000E+00  0.00000000000E+00  0.54767821612E+04  0.54767821612E+04  0.00000000000E+00 0. -1.
          2   -1    0    0  503    0 -0.00000000000E+00 -0.00000000000E+00 -0.66923211928E+03  0.66923211928E+03  0.00000000000E+00 0. -1.
         24    2    1    2    0    0 -0.66989101742E+02  0.58495942225E+02  0.12534700392E+03  0.17185878043E+03  0.76904187203E+02 0.  0.
         25    2    1    2    0    0  0.10246803719E+03  0.19904488696E+03  0.23333057274E+03  0.34668157262E+03  0.12500556366E+03 0.  0.
         24    2    1    2    0    0  0.68825250672E+01 -0.21282362300E+02  0.29870530114E+03  0.31011639743E+03  0.80293305630E+02 0.  0.
        -13    1    5    5    0    0 -0.15165851512E+02 -0.20984145055E+01  0.26525735557E+03  0.26569883530E+03  0.00000000000E+00 0.  1.
         14    1    5    5    0    0  0.22048376579E+02 -0.19183947794E+02  0.33447945572E+02  0.44417562131E+02  0.00000000000E+00 0. -1.
        -13    1    3    3    0    0 -0.11632938724E+01  0.50478003012E+02  0.44566647924E+02  0.67346626849E+02  0.00000000000E+00 0.  1.
         14    1    3    3    0    0 -0.65825807869E+02  0.80179392128E+01  0.80780355993E+02  0.10451215358E+03  0.00000000000E+00 0. -1.
          5    1    4    4  501    0  0.15997367398E+01  0.51309009683E+02  0.13045397028E+03  0.14026939080E+03  0.47000000000E+01 0. -1.
         -5    1    4    4    0  501  0.10086830045E+03  0.14773587728E+03  0.10287660246E+03  0.20641218182E+03  0.47000000000E+01 0. -1.
          1    1    1    2  502    0 -0.82839024695E+02 -0.20961944102E+03  0.47300682695E+04  0.47354354021E+04  0.00000000000E+00 0. -1.
          1    1    1    2  503    0  0.40477564178E+02 -0.26639025861E+02 -0.57990110536E+03  0.58192212786E+03  0.00000000000E+00 0. -1.
<mgrwt>
<rscale>  0 0.10448100E+03</rscale>
<asrwt>0</asrwt>
<pdfrwt beam="1">  1        2 0.80540912E+00 0.22527812E+03</pdfrwt>
<pdfrwt beam="2">  1        2 0.98416491E-01 0.48456897E+02</pdfrwt>
<totfact> 0.20225124E-01</totfact>
</mgrwt>
</event>
<event>
13    1  0.1595792E-008  0.2246378E+03  0.7546771E-02  0.1210802E+00
          2   -1    0    0  503    0  0.00000000000E+00  0.00000000000E+00  0.11772360223E+04  0.11772360223E+04  0.00000000000E+00 0. -1.
          2   -1    0    0  502    0 -0.00000000000E+00 -0.00000000000E+00 -0.42511325390E+04  0.42511325390E+04  0.00000000000E+00 0. -1.
         24    2    1    2    0    0 -0.12928879639E+03  0.10346805829E+03 -0.46210562148E+03  0.49688149105E+03  0.76995965982E+02 0.  0.
         25    2    1    2    0    0 -0.24687406920E+03  0.13798652720E+02  0.11158298304E+03  0.29867525371E+03  0.12497574251E+03 0.  0.
         24    2    1    2    0    0  0.94108915011E+02  0.49540472826E+02  0.20867686274E+03  0.24761294245E+03  0.80345441024E+02 0.  0.
        -11    1    3    3    0    0 -0.11148621790E+02  0.52874431910E+02 -0.13084664271E+03  0.14156567814E+03  0.00000000000E+00 0.  1.
         12    1    3    3    0    0 -0.11814017460E+03  0.50593626383E+02 -0.33125897878E+03  0.35531581291E+03  0.00000000000E+00 0. -1.
        -11    1    5    5    0    0  0.88209064194E+02  0.69111053167E+02  0.16585367506E+03  0.20016148033E+03  0.00000000000E+00 0.  1.
         12    1    5    5    0    0  0.58998508176E+01 -0.19570580341E+02  0.42823187676E+02  0.47451462120E+02  0.00000000000E+00 0. -1.
          5    1    4    4  501    0 -0.24485381854E+03  0.41331656494E+02  0.93707579459E+02  0.26545225321E+03  0.47000000000E+01 0. -1.
         -5    1    4    4    0  501 -0.20202506568E+01 -0.27533003774E+02  0.17875403582E+02  0.33223000508E+02  0.47000000000E+01 0. -1.
          1    1    1    2  502    0  0.20740408980E+03 -0.11720158294E+03 -0.36519649025E+04  0.36597268090E+04  0.00000000000E+00 0. -1.
          1    1    1    2  503    0  0.74649860778E+02 -0.49605600896E+02  0.71991416148E+03  0.72547206511E+03  0.00000000000E+00 0. -1.
<mgrwt>
<rscale>  0 0.14189436E+03</rscale>
<asrwt>0</asrwt>
<pdfrwt beam="1">  1        2 0.17312295E+00 0.89628775E+02</pdfrwt>
<pdfrwt beam="2">  1        2 0.62516655E+00 0.22463778E+03</pdfrwt>
<totfact> 0.15302799E+00</totfact>
</mgrwt>
</event>
<event>
13    1  0.1595792E-008  0.8687303E+02  0.7546771E-02  0.1356340E+00
          2   -1    0    0  502    0  0.00000000000E+00  0.00000000000E+00  0.15747228386E+04  0.15747228386E+04  0.00000000000E+00 0. -1.
          2   -1    0    0  503    0 -0.00000000000E+00 -0.00000000000E+00 -0.21174279142E+04  0.21174279142E+04  0.00000000000E+00 0. -1.
         24    2    1    2    0    0 -0.35783289180E+02  0.11421934135E+02 -0.31663163233E+03  0.32927912704E+03  0.82208567374E+02 0.  0.
         25    2    1    2    0    0 -0.18266288357E+03  0.15001842463E+02 -0.25323449305E+03  0.33666542899E+03  0.12500047318E+03 0.  0.
         24    2    1    2    0    0  0.17218468758E+03  0.15645012283E+02  0.31043280246E+03  0.36446830971E+03  0.81094333300E+02 0.  0.
        -11    1    3    3    0    0 -0.35907104156E+02  0.98342914054E+01 -0.32176129943E+03  0.32390796104E+03  0.00000000000E+00 0.  1.
         12    1    3    3    0    0  0.12381497594E+00  0.15876427293E+01  0.51296671023E+01  0.53711659967E+01  0.00000000000E+00 0. -1.
        -13    1    5    5    0    0  0.12927390950E+02 -0.19541625728E+02  0.17694578350E+02  0.29361380687E+02  0.00000000000E+00 0.  1.
         14    1    5    5    0    0  0.15925729663E+03  0.35186638010E+02  0.29273822411E+03  0.33510692903E+03  0.00000000000E+00 0. -1.
          5    1    4    4  501    0 -0.12816260608E+03  0.64440949897E+02 -0.19794644551E+03  0.24450598134E+03  0.47000000000E+01 0. -1.
         -5    1    4    4    0  501 -0.54500277489E+02 -0.49439107434E+02 -0.55288047537E+02  0.92159447647E+02  0.47000000000E+01 0. -1.
          1    1    1    2  502    0  0.86971425484E+02 -0.45359484205E+00  0.11870661234E+04  0.11902479640E+04  0.00000000000E+00 0. -1.
          1    1    1    2  503    0 -0.40709940313E+02 -0.41615194039E+02 -0.14703378761E+04  0.14714899230E+04  0.00000000000E+00 0. -1.
<mgrwt>
<rscale>  0 0.71115510E+02</rscale>
<asrwt>0</asrwt>
<pdfrwt beam="1">  1        2 0.23157689E+00 0.86873027E+02</pdfrwt>
<pdfrwt beam="2">  1        2 0.31138646E+00 0.58216180E+02</pdfrwt>
<totfact> 0.19824785E+01</totfact>
</mgrwt>
</event>
<event>
13    1  0.1595792E-008  0.1288783E+03  0.7546771E-02  0.1312066E+00
          2   -1    0    0  503    0  0.00000000000E+00  0.00000000000E+00  0.20849760338E+04  0.20849760338E+04  0.00000000000E+00 0. -1.
         -1   -1    0    0    0  501 -0.00000000000E+00 -0.00000000000E+00 -0.72097786602E+03  0.72097786602E+03  0.00000000000E+00 0.  1.
         24    2    1    2    0    0  0.47425883455E+03  0.33217609376E+03  0.25103607746E+03  0.63622635381E+03  0.80637842782E+02 0.  0.
         25    2    1    2    0    0 -0.30879035444E+03 -0.25221638643E+03  0.58739349989E+03  0.72084782788E+03  0.12500351465E+03 0.  0.
         24    2    1    2    0    0 -0.93469232418E+02 -0.11107950818E+03  0.54423092951E+03  0.56912255757E+03  0.81474083969E+02 0.  0.
        -11    1    5    5    0    0 -0.32243379171E+01 -0.22760451071E+02  0.21914598615E+02  0.31759787790E+02  0.00000000000E+00 0.  1.
         12    1    5    5    0    0 -0.90244894501E+02 -0.88319057114E+02  0.52231633089E+03  0.53736276978E+03  0.00000000000E+00 0. -1.
        -11    1    3    3    0    0  0.19415354159E+03  0.10681439770E+03  0.12986646608E+03  0.25684667076E+03  0.00000000000E+00 0.  1.
         12    1    3    3    0    0  0.28010529295E+03  0.22536169606E+03  0.12116961139E+03  0.37937968305E+03  0.00000000000E+00 0. -1.
          5    1    4    4  502    0 -0.17033300147E+03 -0.21014254748E+03  0.34395441326E+03  0.43760707267E+03  0.47000000000E+01 0.  1.
         -5    1    4    4    0  502 -0.13845735297E+03 -0.42073838951E+02  0.24343908663E+03  0.28324075521E+03  0.47000000000E+01 0.  1.
          1    1    1    2  503    0  0.28155141986E+02 -0.50467015967E+02  0.41923709120E+03  0.42320133549E+03  0.00000000000E+00 0. -1.
         -2    1    1    2    0  501 -0.10015438968E+03  0.81586816820E+02 -0.43789943023E+03  0.45655582511E+03  0.00000000000E+00 0.  1.
<mgrwt>
<rscale>  0 0.86300756E+02</rscale>
<asrwt>0</asrwt>
<pdfrwt beam="1">  1        2 0.30661412E+00 0.57789547E+02</pdfrwt>
<pdfrwt beam="2">  1       -1 0.10602616E+00 0.12887833E+03</pdfrwt>
<totfact> 0.93465119E+00</totfact>
</mgrwt>
</event>
<event>
13    1  0.4857192E-008  0.1503629E+03  0.7546771E-02  0.1339420E+00
          2   -1    0    0  502    0  0.00000000000E+00  0.00000000000E+00  0.70675695974E+03  0.70675695974E+03  0.00000000000E+00 0. -1.
          2   -1    0    0  503    0 -0.00000000000E+00 -0.00000000000E+00 -0.27933136538E+04  0.27933136538E+04  0.00000000000E+00 0. -1.
         24    2    1    2    0    0 -0.36470192632E+02 -0.10321458752E+02 -0.13378647184E+03  0.16077024762E+03  0.80694764454E+02 0.  0.
         25    2    1    2    0    0 -0.16472275875E+03 -0.84053928411E+02 -0.80438779735E+03  0.83478363740E+03  0.12500137045E+03 0.  0.
         24    2    1    2    0    0  0.67736991685E+02 -0.10518861915E+02  0.82113211737E+01  0.10643913398E+03  0.81011832153E+02 0.  0.
        -11    1    5    5    0    0  0.22467028464E+02 -0.32966293154E+02 -0.23960802568E+02  0.46536694253E+02  0.00000000000E+00 0.  1.
         12    1    5    5    0    0  0.45269963221E+02  0.22447431239E+02  0.32172123742E+02  0.59902439728E+02  0.00000000000E+00 0. -1.
        -11    1    3    3    0    0  0.25694724895E+02 -0.26727094242E+00 -0.31476172079E+02  0.40632988198E+02  0.00000000000E+00 0.  1.
         12    1    3    3    0    0 -0.62164917527E+02 -0.10054187810E+02 -0.10231029976E+03  0.12013725942E+03  0.00000000000E+00 0. -1.
          5    1    4    4  501    0 -0.89576853172E+02 -0.78181490596E+02 -0.26961338324E+03  0.29470294284E+03  0.47000000000E+01 0.  1.
         -5    1    4    4    0  501 -0.75145905573E+02 -0.58724378148E+01 -0.53477441412E+03  0.54008069457E+03  0.47000000000E+01 0.  1.
          1    1    1    2  502    0  0.11064137800E+03  0.13637223345E+03  0.60810337564E+03  0.63295230156E+03  0.00000000000E+00 0. -1.
          1    1    1    2  503    0  0.22814581693E+02 -0.31477984374E+02 -0.17646971216E+04  0.17651252929E+04  0.00000000000E+00 0. -1.
<mgrwt>
<rscale>  0 0.76456243E+02</rscale>
<asrwt>0</asrwt>
<pdfrwt beam="1">  1        2 0.10393485E+00 0.15036290E+03</pdfrwt>
<pdfrwt beam="2">  1        2 0.41078142E+00 0.38876325E+02</pdfrwt>
<totfact> 0.29781947E+01</totfact>
</mgrwt>
</event>
<event>
13    1  0.1595792E-008  0.7751090E+02  0.7546771E-02  0.1375957E+00
          2   -1    0    0  502    0  0.00000000000E+00  0.00000000000E+00  0.60466091787E+03  0.60466091787E+03  0.00000000000E+00 0. -1.
          2   -1    0    0  503    0 -0.00000000000E+00 -0.00000000000E+00 -0.15407734459E+04  0.15407734459E+04  0.00000000000E+00 0. -1.
         24    2    1    2    0    0 -0.26534975106E+02 -0.13557011403E+03 -0.90327821596E+03  0.91774388440E+03  0.85199420173E+02 0.  0.
         25    2    1    2    0    0 -0.70918981124E+02  0.13527114957E+03  0.48411110175E+02  0.20321398177E+03  0.12499800402E+03 0.  0.
         24    2    1    2    0    0 -0.24569553237E+02 -0.62494445278E+00  0.12237335640E+02  0.84889239940E+02  0.80326690285E+02 0.  0.
        -11    1    3    3    0    0 -0.35363114719E+02 -0.12473586342E+02 -0.16374046391E+03  0.16797940279E+03  0.00000000000E+00 0.  1.
         12    1    3    3    0    0  0.88281396128E+01 -0.12309652769E+03 -0.73953775205E+03  0.74976448161E+03  0.00000000000E+00 0. -1.
        -13    1    5    5    0    0 -0.53643933964E+02  0.48068075091E+01  0.31652910129E+01  0.53951794380E+02  0.00000000000E+00 0.  1.
         14    1    5    5    0    0  0.29074380727E+02 -0.54317519618E+01  0.90720446275E+01  0.30937445560E+02  0.00000000000E+00 0. -1.
          5    1    4    4  501    0 -0.10792767384E+02 -0.23383478445E+02 -0.17166943580E+01  0.26235623330E+02  0.47000000000E+01 0. -1.
         -5    1    4    4    0  501 -0.60126213740E+02  0.15865462802E+03  0.50127804533E+02  0.17697835844E+03  0.47000000000E+01 0. -1.
          1    1    1    2  502    0  0.79913164885E+02  0.36945808673E+02  0.41695586544E+03  0.42614938745E+03  0.00000000000E+00 0. -1.
          1    1    1    2  503    0  0.42110344582E+02 -0.36021899757E+02 -0.51043862336E+03  0.51343787025E+03  0.00000000000E+00 0. -1.
<mgrwt>
<rscale>  0 0.65538475E+02</rscale>
<asrwt>0</asrwt>
<pdfrwt beam="1">  1        2 0.88920724E-01 0.77510898E+02</pdfrwt>
<pdfrwt beam="2">  1        2 0.22658433E+00 0.55415326E+02</pdfrwt>
<totfact> 0.13513312E+02</totfact>
</mgrwt>
</event>
<event>
13    1  0.1595792E-008  0.1572684E+03  0.7546771E-02  0.1281523E+00
          2   -1    0    0  503    0  0.00000000000E+00  0.00000000000E+00  0.46884957910E+04  0.46884957910E+04  0.00000000000E+00 0. -1.
          2   -1    0    0  502    0 -0.00000000000E+00 -0.00000000000E+00 -0.13826047210E+04  0.13826047210E+04  0.00000000000E+00 0. -1.
         24    2    1    2    0    0  0.64734954392E+01  0.12033895662E+02  0.31844388779E+02  0.89749760910E+02  0.82790299544E+02 0.  0.
         25    2    1    2    0    0 -0.12465034083E+03 -0.25037729924E+03  0.67281238472E+02  0.31365379088E+03  0.12500174417E+03 0.  0.
         24    2    1    2    0    0 -0.42067908933E+02  0.65366406572E+02  0.80673283386E+03  0.81450339994E+03  0.80965716330E+02 0.  0.
        -11    1    5    5    0    0 -0.64505825258E+02  0.35854002415E+02  0.47388001552E+03  0.47959230612E+03  0.00000000000E+00 0.  1.
         12    1    5    5    0    0  0.22437916325E+02  0.29512404156E+02  0.33285281834E+03  0.33491109382E+03  0.00000000000E+00 0. -1.
        -13    1    3    3    0    0 -0.41817990777E+01 -0.35204406479E+02  0.14711644710E+02  0.38383201654E+02  0.00000000000E+00 0.  1.
         14    1    3    3    0    0  0.10655294517E+02  0.47238302142E+02  0.17132744069E+02  0.51366559256E+02  0.00000000000E+00 0. -1.
          5    1    4    4  501    0 -0.10628875150E+03 -0.85634997776E+02  0.54862304839E+01  0.13668518670E+03  0.47000000000E+01 0.  1.
         -5    1    4    4    0  501 -0.18361589325E+02 -0.16474230146E+03  0.61795007988E+02  0.17696860418E+03  0.47000000000E+01 0.  1.
          1    1    1    2  502    0  0.56978252320E+02  0.26521653272E+02 -0.12235597459E+04  0.12251727924E+04  0.00000000000E+00 0. -1.
          1    1    1    2  503    0  0.10326650200E+03  0.14645534373E+03  0.36235923548E+04  0.36280207678E+04  0.00000000000E+00 0. -1.
<mgrwt>
<rscale>  0 0.99418645E+02</rscale>
<asrwt>0</asrwt>
<pdfrwt beam="1">  1        2 0.68948467E+00 0.15726844E+03</pdfrwt>
<pdfrwt beam="2">  1        2 0.20332423E+00 0.62848384E+02</pdfrwt>
<totfact> 0.59292063E-01</totfact>
</mgrwt>
</event>
<event>
13    1  0.1595792E-008  0.5402378E+02  0.7546771E-02  0.1663813E+00
          2   -1    0    0  503    0  0.00000000000E+00  0.00000000000E+00  0.16525380933E+04  0.16525380933E+04  0.00000000000E+00 0. -1.
         -3   -1    0    0    0  501 -0.00000000000E+00 -0.00000000000E+00 -0.18932361785E+03  0.18932361785E+03  0.00000000000E+00 0.  1.
         24    2    1    2    0    0  0.17884526216E+02  0.47236414682E+02 -0.10279929067E+01  0.94862191648E+02  0.80290992552E+02 0.  0.
         25    2    1    2    0    0 -0.27549297876E+02  0.10466696805E+03  0.39953037617E+03  0.43239242341E+03  0.12499819330E+03 0.  0.
         24    2    1    2    0    0 -0.45532302996E+01 -0.11158886439E+03  0.61872109381E+03  0.63333445613E+03  0.76314709119E+02 0.  0.
        -11    1    5    5    0    0 -0.35941027878E+02 -0.88707905055E+02  0.46815693876E+03  0.47784073625E+03  0.00000000000E+00 0.  1.
         12    1    5    5    0    0  0.31387797578E+02 -0.22880959339E+02  0.15056415505E+03  0.15549371988E+03  0.00000000000E+00 0. -1.
        -11    1    3    3    0    0 -0.32268030841E+01  0.16168296822E+02  0.37554947812E+02  0.41014633796E+02  0.00000000000E+00 0.  1.
         12    1    3    3    0    0  0.21111329300E+02  0.31068117860E+02 -0.38582940719E+02  0.53847557853E+02  0.00000000000E+00 0. -1.
          5    1    4    4  502    0  0.30495891185E+02  0.11058303836E+02  0.21464482484E+03  0.21713308429E+03  0.47000000000E+01 0.  1.
         -5    1    4    4    0  502 -0.58045189061E+02  0.93608664212E+02  0.18488555133E+03  0.21525933912E+03  0.47000000000E+01 0.  1.
          1    1    1    2  503    0 -0.26415508568E+01  0.11079005231E+02  0.55735346280E+03  0.55746982397E+03  0.00000000000E+00 0. -1.
         -4    1    1    2    0  501  0.16859552817E+02 -0.51393523565E+02 -0.11136246438E+03  0.12380281604E+03  0.00000000000E+00 0.  1.
<mgrwt>
<rscale>  0 0.24805388E+02</rscale>
<asrwt>0</asrwt>
<pdfrwt beam="1">  1        2 0.24302030E+00 0.11389563E+02</pdfrwt>
<pdfrwt beam="2">  1       -3 0.27841709E-01 0.54023781E+02</pdfrwt>
<totfact> 0.11456663E+02</totfact>
</mgrwt>
</event>
<event>
13    1  0.1595792E-008  0.7938270E+02  0.7546771E-02  0.1409423E+00
          2   -1    0    0  502    0  0.00000000000E+00  0.00000000000E+00  0.20667593635E+04  0.20667593635E+04  0.00000000000E+00 0. -1.
          2   -1    0    0  503    0 -0.00000000000E+00 -0.00000000000E+00 -0.27232245623E+04  0.27232245623E+04  0.00000000000E+00 0. -1.
         24    2    1    2    0    0  0.10063415414E+03 -0.50858912627E+02 -0.16271037989E+03  0.21416873213E+03  0.81729530299E+02 0.  0.
         25    2    1    2    0    0 -0.66764563757E+02 -0.94805437255E+01  0.25939879105E+03  0.29573512509E+03  0.12499657487E+03 0.  0.
         24    2    1    2    0    0 -0.44431797880E+02  0.34782910002E+01  0.26139199230E+03  0.27585774625E+03  0.76062075658E+02 0.  0.
        -13    1    5    5    0    0  0.48081812512E+00  0.48310903753E+01 -0.42439210112E+01  0.64483707890E+01  0.00000000000E+00 0.  1.
         14    1    5    5    0    0 -0.44912616006E+02 -0.13527993751E+01  0.26563591332E+03  0.26940937546E+03  0.00000000000E+00 0. -1.
        -13    1    3    3    0    0  0.69124688817E+02  0.78544161319E+01 -0.10534234254E+03  0.12624152878E+03  0.00000000000E+00 0.  1.
         14    1    3    3    0    0  0.31509465327E+02 -0.58713328759E+02 -0.57368037356E+02  0.87927203352E+02  0.00000000000E+00 0. -1.
          5    1    4    4  501    0 -0.38589525165E+02  0.48046649601E+02  0.19589548990E+03  0.20541364354E+03  0.47000000000E+01 0.  1.
         -5    1    4    4    0  501 -0.28175038592E+02 -0.57527193327E+02  0.63503301150E+02  0.90321481546E+02  0.47000000000E+01 0.  1.
          1    1    1    2  502    0 -0.26685289665E+02  0.74917086792E+02  0.14936097165E+04  0.14957254627E+04  0.00000000000E+00 0. -1.
          1    1    1    2  503    0  0.37247497159E+02 -0.18055921440E+02 -0.25081553187E+04  0.25084968596E+04  0.00000000000E+00 0. -1.
<mgrwt>
<rscale>  0 0.57322765E+02</rscale>
<asrwt>0</asrwt>
<pdfrwt beam="1">  1        2 0.30393520E+00 0.79382696E+02</pdfrwt>
<pdfrwt beam="2">  1        2 0.40047420E+00 0.41393144E+02</pdfrwt>
<totfact> 0.62519221E+00</totfact>
</mgrwt>
</event>
<event>
13    1  0.1595792E-008  0.8518563E+02  0.7546771E-02  0.1407268E+00
          2   -1    0    0  503    0  0.00000000000E+00  0.00000000000E+00  0.74430910417E+03  0.74430910417E+03  0.00000000000E+00 0. -1.
          2   -1    0    0  502    0 -0.00000000000E+00 -0.00000000000E+00 -0.16386898702E+04  0.16386898702E+04  0.00000000000E+00 0. -1.
         24    2    1    2    0    0  0.63576396141E+02  0.17772005370E+03 -0.80895931362E+03  0.83533804029E+03  0.88023262981E+02 0.  0.
         25    2    1    2    0    0 -0.17432001414E+03 -0.11926067343E+03 -0.41900758583E+03  0.48559466479E+03  0.12499698372E+03 0.  0.
         24    2    1    2    0    0  0.19578247783E+03  0.28781659970E+02  0.54876510249E+02  0.22048804986E+03  0.80276934274E+02 0.  0.
        -11    1    5    5    0    0  0.40781418717E+02  0.37296536368E+02  0.31184583124E+02  0.63455763822E+02  0.00000000000E+00 0.  1.
         12    1    5    5    0    0  0.15500105912E+03 -0.85148763981E+01  0.23691927125E+02  0.15703228604E+03  0.00000000000E+00 0. -1.
        -13    1    3    3    0    0 -0.78322058339E+01 -0.57817064002E+01 -0.20973194815E+02  0.23122423702E+02  0.00000000000E+00 0.  1.
         14    1    3    3    0    0  0.71408601975E+02  0.18350176010E+03 -0.78798611881E+03  0.81221561659E+03  0.00000000000E+00 0. -1.
          5    1    4    4  501    0 -0.15862584728E+03 -0.39830307276E+02 -0.29709400989E+03  0.33916891590E+03  0.47000000000E+01 0. -1.
         -5    1    4    4    0  501 -0.15694166865E+02 -0.79430366151E+02 -0.12191357594E+03  0.14642574889E+03  0.47000000000E+01 0. -1.
          1    1    1    2  502    0 -0.17953723422E+02 -0.34879502003E+02 -0.27681107594E+03  0.27957697975E+03  0.00000000000E+00 0. -1.
          1    1    1    2  503    0 -0.67085136413E+02 -0.52361538234E+02  0.55552069913E+03  0.56200123965E+03  0.00000000000E+00 0. -1.
<mgrwt>
<rscale>  0 0.57807859E+02</rscale>
<asrwt>0</asrwt>
<pdfrwt beam="1">  1        2 0.10945722E+00 0.85185630E+02</pdfrwt>
<pdfrwt beam="2">  1        2 0.24098380E+00 0.39229018E+02</pdfrwt>
<totfact> 0.98800938E+01</totfact>
</mgrwt>
</event>
<event>
13    1  0.1595792E-008  0.1489597E+03  0.7546771E-02  0.1272678E+00
          2   -1    0    0  502    0  0.00000000000E+00  0.00000000000E+00  0.77136444842E+03  0.77136444842E+03  0.00000000000E+00 0. -1.
          2   -1    0    0  503    0 -0.00000000000E+00 -0.00000000000E+00 -0.27673251013E+04  0.27673251013E+04  0.00000000000E+00 0. -1.
         24    2    1    2    0    0 -0.24580664950E+03 -0.16264034277E+03 -0.63355269021E+03  0.70337850905E+03  0.80495501000E+02 0.  0.
         25    2    1    2    0    0  0.22886162287E+03  0.32708117018E+03  0.29697997855E+03  0.51301429743E+03  0.12500730935E+03 0.  0.
         24    2    1    2    0    0 -0.70540347687E+02 -0.68935477725E+02 -0.12647682561E+03  0.17905773816E+03  0.79606817785E+02 0.  0.
        -11    1    5    5    0    0  0.82912155853E+01 -0.22641601415E+02 -0.14264561147E+01  0.24154112436E+02  0.00000000000E+00 0.  1.
         12    1    5    5    0    0 -0.78831563272E+02 -0.46293876310E+02 -0.12505036949E+03  0.15490362572E+03  0.00000000000E+00 0. -1.
        -11    1    3    3    0    0 -0.13365375324E+03 -0.72461987890E+02 -0.23753387766E+03  0.28202200000E+03  0.00000000000E+00 0.  1.
         12    1    3    3    0    0 -0.11215289626E+03 -0.90178354881E+02 -0.39601881255E+03  0.42135650905E+03  0.00000000000E+00 0. -1.
          5    1    4    4  501    0  0.98393776037E+01  0.33402668939E+01  0.48507566962E+02  0.49830159413E+02  0.47000000000E+01 0.  1.
         -5    1    4    4    0  501  0.21902224527E+03  0.32374090329E+03  0.24847241159E+03  0.46318413801E+03  0.47000000000E+01 0.  1.
          1    1    1    2  502    0 -0.71591547643E+02 -0.94208317652E+01  0.29636874308E+03  0.30503857730E+03  0.00000000000E+00 0. -1.
          1    1    1    2  503    0  0.15907692196E+03 -0.86084517922E+02 -0.18292798587E+04  0.18382004278E+04  0.00000000000E+00 0. -1.
<mgrwt>
<rscale>  0 0.10371205E+03</rscale>
<asrwt>0</asrwt>
<pdfrwt beam="1">  1        2 0.11343595E+00 0.72208737E+02</pdfrwt>
<pdfrwt beam="2">  1        2 0.40695957E+00 0.14895967E+03</pdfrwt>
<totfact> 0.23190742E+01</totfact>
</mgrwt>
</event>
<event>
13    1  0.1595792E-008  0.1089430E+03  0.7546771E-02  0.1426806E+00
          2   -1    0    0  503    0  0.00000000000E+00  0.00000000000E+00  0.24610784955E+04  0.24610784955E+04  0.00000000000E+00 0. -1.
         -1   -1    0    0    0  501 -0.00000000000E+00 -0.00000000000E+00 -0.67841460539E+03  0.67841460539E+03  0.00000000000E+00 0.  1.
         24    2    1    2    0    0 -0.90067756445E+02 -0.83723682182E+02  0.13213267176E+03  0.19748144276E+03  0.80112555684E+02 0.  0.
         25    2    1    2    0    0  0.18341419317E+03  0.18413700351E+03  0.29985217326E+03  0.41603525760E+03  0.12500722953E+03 0.  0.
         24    2    1    2    0    0 -0.95435159623E+02  0.17731367793E+02  0.95296900939E+03  0.96112612951E+03  0.78684387766E+02 0.  0.
        -11    1    3    3    0    0 -0.99123656379E+02 -0.48947213839E+02  0.94355826767E+02  0.14534218603E+03  0.00000000000E+00 0.  1.
         12    1    3    3    0    0  0.90558999336E+01 -0.34776468343E+02  0.37776844992E+02  0.52139256722E+02  0.00000000000E+00 0. -1.
        -13    1    5    5    0    0 -0.32500242434E+02  0.13361457754E+02  0.10319842999E+03  0.10901701823E+03  0.00000000000E+00 0.  1.
         14    1    5    5    0    0 -0.62934917189E+02  0.43699100395E+01  0.84977057940E+03  0.85210911128E+03  0.00000000000E+00 0. -1.
          5    1    4    4  502    0  0.97747923322E+02  0.62922357272E+02  0.21638883227E+03  0.24568291819E+03  0.47000000000E+01 0.  1.
         -5    1    4    4    0  502  0.85666269849E+02  0.12121464624E+03  0.83463340994E+02  0.17035233941E+03  0.47000000000E+01 0.  1.
          1    1    1    2  503    0  0.25365413562E+02 -0.10573582395E+03  0.97796735794E+03  0.98399371027E+03  0.00000000000E+00 0. -1.
         -2    1    1    2    0  501 -0.23276690665E+02 -0.12408865179E+02 -0.58025732219E+03  0.58085656080E+03  0.00000000000E+00 0.  1.
<mgrwt>
<rscale>  0 0.53606597E+02</rscale>
<asrwt>0</asrwt>
<pdfrwt beam="1">  1        2 0.36192331E+00 0.10894296E+03</pdfrwt>
<pdfrwt beam="2">  1       -1 0.99766854E-01 0.26377723E+02</pdfrwt>
<totfact> 0.69620160E+00</totfact>
</mgrwt>
</event>
<event>
13    1  0.1595792E-008  0.6362820E+02  0.7546771E-02  0.1384001E+00
          2   -1    0    0  502    0  0.00000000000E+00  0.00000000000E+00  0.28245840952E+03  0.28245840952E+03  0.00000000000E+00 0. -1.
          4   -1    0    0  503    0 -0.00000000000E+00 -0.00000000000E+00 -0.41094029703E+03  0.41094029703E+03  0.00000000000E+00 0. -1.
         24    2    1    2    0    0  0.33396401484E+02 -0.94263585267E+01 -0.13705234682E+03  0.16274455747E+03  0.80611843736E+02 0.  0.
         25    2    1    2    0    0 -0.46722039653E+02  0.62642622446E+02  0.56724152886E+02  0.15795570270E+03  0.12500130943E+03 0.  0.
         24    2    1    2    0    0 -0.39466891918E+02 -0.36622354961E+02  0.74773134429E+02  0.12137382157E+03  0.79004749787E+02 0.  0.
        -13    1    3    3    0    0  0.42760435693E+01  0.32236954410E+02 -0.79864339483E+02  0.86231192148E+02  0.00000000000E+00 0.  1.
         14    1    3    3    0    0  0.29120357914E+02 -0.41663312937E+02 -0.57188007340E+02  0.76513365325E+02  0.00000000000E+00 0. -1.
        -13    1    5    5    0    0 -0.34075309057E+02 -0.60274725770E+02  0.43406963597E+02  0.81721072819E+02  0.00000000000E+00 0.  1.
         14    1    5    5    0    0 -0.53915828614E+01  0.23652370809E+02  0.31366170831E+02  0.39652748748E+02  0.00000000000E+00 0. -1.
          5    1    4    4  501    0 -0.12015955931E+01 -0.54724273229E+01  0.73780244623E+02  0.74141795159E+02  0.47000000000E+01 0. -1.
         -5    1    4    4    0  501 -0.45520444060E+02  0.68115049769E+02 -0.17056091737E+02  0.83813907544E+02  0.47000000000E+01 0. -1.
          1    1    1    2  502    0  0.46938830455E+02  0.46764456780E+02  0.39320260145E+02  0.77047070549E+02  0.00000000000E+00 0. -1.
          3    1    1    2  503    0  0.58536996320E+01 -0.63358365738E+02 -0.16224708814E+03  0.17427755426E+03  0.00000000000E+00 0. -1.
<mgrwt>
<rscale>  0 0.63423613E+02</rscale>
<asrwt>0</asrwt>
<pdfrwt beam="1">  1        2 0.41538002E-01 0.63219681E+02</pdfrwt>
<pdfrwt beam="2">  1        4 0.60432395E-01 0.63628204E+02</pdfrwt>
<totfact> 0.15348968E+02</totfact>
</mgrwt>
</event>
<event>
13    1  0.1595792E-008  0.1050034E+03  0.7546771E-02  0.1399239E+00
          2   -1    0    0  502    0  0.00000000000E+00  0.00000000000E+00  0.43692208247E+03  0.43692208247E+03  0.00000000000E+00 0. -1.
          2   -1    0    0  503    0 -0.00000000000E+00 -0.00000000000E+00 -0.11067731422E+04  0.11067731422E+04  0.00000000000E+00 0. -1.
         24    2    1    2    0    0  0.77872159721E+02  0.29240480296E+01 -0.14295502729E+03  0.18115366338E+03  0.79422204770E+02 0.  0.
         25    2    1    2    0    0 -0.20691965446E+03  0.66075631535E+02 -0.26198338648E+03  0.36254822428E+03  0.12499675057E+03 0.  0.
         24    2    1    2    0    0  0.12754652612E+02 -0.25158064918E+02  0.44622973347E+02  0.96178750522E+02  0.80396100080E+02 0.  0.
        -11    1    3    3    0    0  0.42386534193E+01  0.25320340162E+02 -0.10044796496E+02  0.27567802694E+02  0.00000000000E+00 0.  1.
         12    1    3    3    0    0  0.73633506301E+02 -0.22396292133E+02 -0.13291023080E+03  0.15358586068E+03  0.00000000000E+00 0. -1.
        -11    1    5    5    0    0 -0.33384630829E+02 -0.87951917257E+01  0.91282330737E+01  0.35710133185E+02  0.00000000000E+00 0.  1.
         12    1    5    5    0    0  0.46139283441E+02 -0.16362873192E+02  0.35494740273E+02  0.60468617337E+02  0.00000000000E+00 0. -1.
          5    1    4    4  501    0 -0.22152189169E+03  0.72656093528E+02 -0.23680540401E+03  0.33233980470E+03  0.47000000000E+01 0. -1.
         -5    1    4    4    0  501  0.14602237224E+02 -0.65804619930E+01 -0.25177982471E+02  0.30208419576E+02  0.47000000000E+01 0. -1.
          1    1    1    2  502    0  0.10405267283E+03 -0.12224377168E+02  0.28740844707E+03  0.30590849868E+03  0.00000000000E+00 0. -1.
          1    1    1    2  503    0  0.12240169301E+02 -0.31617237479E+02 -0.59694406638E+03  0.59790608780E+03  0.00000000000E+00 0. -1.
<mgrwt>
<rscale>  0 0.59665903E+02</rscale>
<asrwt>0</asrwt>
<pdfrwt beam="1">  1        2 0.64253248E-01 0.10500340E+03</pdfrwt>
<pdfrwt beam="2">  1        2 0.16276075E+00 0.33903856E+02</pdfrwt>
<totfact> 0.32388571E+02</totfact>
</mgrwt>
</event>
<event>
13    1  0.1595792E-008  0.5377341E+02  0.7546771E-02  0.1492692E+00
          2   -1    0    0  502    0  0.00000000000E+00  0.00000000000E+00  0.33524860185E+04  0.33524860185E+04  0.00000000000E+00 0. -1.
          2   -1    0    0  503    0 -0.00000000000E+00 -0.00000000000E+00 -0.39544523873E+03  0.39544523873E+03  0.00000000000E+00 0. -1.
         24    2    1    2    0    0 -0.32280554319E+03 -0.22147095971E+02 -0.11299532055E+03  0.35204884743E+03  0.80476927949E+02 0.  0.
         25    2    1    2    0    0  0.20356866409E+03 -0.15268771092E+03  0.37494483875E+03  0.47006610118E+03  0.12499907722E+03 0.  0.
         24    2    1    2    0    0  0.94537200175E+02  0.10990315737E+03  0.75835692631E+03  0.77702746112E+03  0.87466916220E+02 0.  0.
        -11    1    3    3    0    0 -0.20767417653E+03  0.65072497807E+01 -0.10586402758E+03  0.23319112383E+03  0.00000000000E+00 0.  1.
         12    1    3    3    0    0 -0.11513136666E+03 -0.28654345752E+02 -0.71312929791E+01  0.11885772360E+03  0.00000000000E+00 0. -1.
        -13    1    5    5    0    0 -0.73037326465E+01  0.51090870106E+02  0.24366964306E+03  0.24907532288E+03  0.00000000000E+00 0.  1.
         14    1    5    5    0    0  0.10184093282E+03  0.58812287261E+02  0.51468728326E+03  0.52795213824E+03  0.00000000000E+00 0. -1.
          5    1    4    4  501    0  0.13022562359E+03 -0.20855574398E+02  0.15960271039E+03  0.20709607236E+03  0.47000000000E+01 0. -1.
         -5    1    4    4    0  501  0.73343040496E+02 -0.13183213652E+03  0.21534212837E+03  0.26297002882E+03  0.47000000000E+01 0. -1.
          1    1    1    2  502    0  0.40209542618E+02  0.35689555367E+02  0.20398152972E+04  0.20405237069E+04  0.00000000000E+00 0. -1.
          1    1    1    2  503    0 -0.15509863684E+02  0.29242094153E+02 -0.10308096198E+03  0.10826514058E+03  0.00000000000E+00 0. -1.
<mgrwt>
<rscale>  0 0.42189303E+02</rscale>
<asrwt>0</asrwt>
<pdfrwt beam="1">  1        2 0.49301263E+00 0.53773414E+02</pdfrwt>
<pdfrwt beam="2">  1        2 0.58153713E-01 0.33100694E+02</pdfrwt>
<totfact> 0.27361378E+01</totfact>
</mgrwt>
</event>
<event>
13    1  0.1595792E-008  0.2753090E+03  0.7546771E-02  0.1246636E+00
          2   -1    0    0  502    0  0.00000000000E+00  0.00000000000E+00  0.18210055454E+04  0.18210055454E+04  0.00000000000E+00 0. -1.
          2   -1    0    0  503    0 -0.00000000000E+00 -0.00000000000E+00 -0.17310599018E+04  0.17310599018E+04  0.00000000000E+00 0. -1.
         24    2    1    2    0    0 -0.43683349431E+02  0.15886043257E+03 -0.18880008679E+03  0.26293846775E+03  0.79663624051E+02 0.  0.
         25    2    1    2    0    0  0.37850378452E+02 -0.40631794928E+03  0.33095439398E+03  0.54007785602E+03  0.12500541033E+03 0.  0.
         24    2    1    2    0    0  0.53603647644E+02 -0.17458744103E+02  0.12160352806E+02  0.98874400318E+02  0.80312602197E+02 0.  0.
        -11    1    3    3    0    0  0.20046456969E+02  0.63798970961E+02 -0.87270729240E+02  0.10994702959E+03  0.00000000000E+00 0.  1.
         12    1    3    3    0    0 -0.63729806399E+02  0.95061461605E+02 -0.10152935755E+03  0.15299143816E+03  0.00000000000E+00 0. -1.
        -11    1    5    5    0    0  0.67388741528E+02 -0.26946923405E+02 -0.76073028757E+01  0.72974312075E+02  0.00000000000E+00 0.  1.
         12    1    5    5    0    0 -0.13785093885E+02  0.94881793023E+01  0.19767655681E+02  0.25900088243E+02  0.00000000000E+00 0. -1.
          5    1    4    4  501    0 -0.39493526897E+02 -0.14403395516E+03  0.83053326231E+02  0.17095456678E+03  0.47000000000E+01 0. -1.
         -5    1    4    4    0  501  0.77343905349E+02 -0.26228399412E+03  0.24790106774E+03  0.36912328924E+03  0.47000000000E+01 0. -1.
          1    1    1    2  502    0 -0.48822086988E+02 -0.12803605138E+02  0.12781928622E+04  0.12791890093E+04  0.00000000000E+00 0. -1.
          1    1    1    2  503    0  0.10514103221E+01  0.27771986596E+03 -0.13425618786E+04  0.13709857137E+04  0.00000000000E+00 0. -1.
<mgrwt>
<rscale>  0 0.11787995E+03</rscale>
<asrwt>0</asrwt>
<pdfrwt beam="1">  1        2 0.26779493E+00 0.50473047E+02</pdfrwt>
<pdfrwt beam="2">  1        2 0.25456763E+00 0.27530896E+03</pdfrwt>
<totfact> 0.21079081E+01</totfact>
</mgrwt>
</event>
<event>
13    1  0.1595792E-008  0.1784666E+03  0.7546771E-02  0.1239297E+00
          2   -1    0    0  502    0  0.00000000000E+00  0.00000000000E+00  0.12058488119E+04  0.12058488119E+04  0.00000000000E+00 0. -1.
          2   -1    0    0  503    0 -0.00000000000E+00 -0.00000000000E+00 -0.37178983856E+03  0.37178983856E+03  0.00000000000E+00 0. -1.
         24    2    1    2    0    0 -0.57761771817E+02 -0.76158564604E+02 -0.77162750995E+02  0.14740544176E+03  0.81472233765E+02 0.  0.
         25    2    1    2    0    0 -0.79257523910E+02  0.74909607690E+02  0.74947937545E+02  0.18202575481E+03  0.12499191034E+03 0.  0.
         24    2    1    2    0    0 -0.66682561984E+02 -0.12819143923E+03 -0.93560382720E+01  0.16630130242E+03  0.81786175907E+02 0.  0.
        -11    1    5    5    0    0  0.48483161659E+01 -0.52118925805E+02 -0.29309630848E+02  0.59991191496E+02  0.00000000000E+00 0.  1.
         12    1    5    5    0    0 -0.71530878150E+02 -0.76072513427E+02  0.19953592576E+02  0.10631011092E+03  0.00000000000E+00 0. -1.
        -13    1    3    3    0    0 -0.75973732966E+02 -0.50173319705E+02 -0.70077469505E+02  0.11489221838E+03  0.00000000000E+00 0.  1.
         14    1    3    3    0    0  0.18211961149E+02 -0.25985244899E+02 -0.70852814905E+01  0.32513223389E+02  0.00000000000E+00 0. -1.
          5    1    4    4  501    0 -0.11100940883E+03  0.74006032192E+02  0.64450586360E+02  0.14824287413E+03  0.47000000000E+01 0.  1.
         -5    1    4    4    0  501  0.31751884921E+02  0.90357549872E+00  0.10497351186E+02  0.33782880674E+02  0.47000000000E+01 0.  1.
          1    1    1    2  502    0  0.12018723978E+03  0.13699041715E+03  0.93893477339E+03  0.95645692829E+03  0.00000000000E+00 0. -1.
          1    1    1    2  503    0  0.83514617930E+02 -0.75500210005E+01 -0.93304948296E+02  0.12544922320E+03  0.00000000000E+00 0. -1.
<mgrwt>
<rscale>  0 0.12233294E+03</rscale>
<asrwt>0</asrwt>
<pdfrwt beam="1">  1        2 0.17733071E+00 0.17846656E+03</pdfrwt>
<pdfrwt beam="2">  1        2 0.54674977E-01 0.83855198E+02</pdfrwt>
<totfact> 0.30877873E+02</totfact>
</mgrwt>
</event>
<event>
13    1  0.1595792E-008  0.1263024E+03  0.7546771E-02  0.1266425E+00
          2   -1    0    0  503    0  0.00000000000E+00  0.00000000000E+00  0.21633042353E+04  0.21633042353E+04  0.00000000000E+00 0. -1.
          2   -1    0    0  502    0 -0.00000000000E+00 -0.00000000000E+00 -0.15330560601E+04  0.15330560601E+04  0.00000000000E+00 0. -1.
         24    2    1    2    0    0 -0.26599335177E+01  0.19583455306E+02 -0.17437398515E+03  0.19324734025E+03  0.80917617660E+02 0.  0.
         25    2    1    2    0    0  0.24343977438E+03  0.31457438257E+02 -0.41615228152E+02  0.27858474278E+03  0.12500055009E+03 0.  0.
         24    2    1    2    0    0 -0.16547979845E+03 -0.91186081633E+02  0.10672266975E+04  0.10870502671E+04  0.83707790979E+02 0.  0.
        -11    1    5    5    0    0  0.84778451438E+01  0.26673062232E+01  0.53459670500E+02  0.54193401358E+02  0.00000000000E+00 0.  1.
         12    1    5    5    0    0 -0.17395764359E+03 -0.93853387856E+02  0.10137670270E+04  0.10328568658E+04  0.00000000000E+00 0. -1.
        -13    1    3    3    0    0 -0.25132447259E+02  0.43644702257E+02 -0.10405414568E+03  0.11560175247E+03  0.00000000000E+00 0.  1.
         14    1    3    3    0    0  0.22472513742E+02 -0.24061246951E+02 -0.70319839469E+02  0.77645587780E+02  0.00000000000E+00 0. -1.
          5    1    4    4  501    0  0.16790390701E+03 -0.28774757240E+02 -0.58939074989E+02  0.18032086181E+03  0.47000000000E+01 0. -1.
         -5    1    4    4    0  501  0.75535867368E+02  0.60232195497E+02  0.17323846837E+02  0.98263880967E+02  0.47000000000E+01 0. -1.
          1    1    1    2  502    0 -0.66335115018E+02 -0.87369344567E+02 -0.11723986543E+04  0.11775195771E+04  0.00000000000E+00 0. -1.
          1    1    1    2  503    0 -0.89649273942E+01  0.12751453264E+03  0.95140934537E+03  0.95995836806E+03  0.00000000000E+00 0. -1.
<mgrwt>
<rscale>  0 0.10689787E+03</rscale>
<asrwt>0</asrwt>
<pdfrwt beam="1">  1        2 0.31813298E+00 0.12630244E+03</pdfrwt>
<pdfrwt beam="2">  1        2 0.22544942E+00 0.90474536E+02</pdfrwt>
<totfact> 0.18031259E+01</totfact>
</mgrwt>
</event>
<event>
13    1  0.1595792E-008  0.5546424E+02  0.7546771E-02  0.1517782E+00
          2   -1    0    0  503    0  0.00000000000E+00  0.00000000000E+00  0.96231409132E+03  0.96231409132E+03  0.00000000000E+00 0. -1.
          2   -1    0    0  502    0 -0.00000000000E+00 -0.00000000000E+00 -0.19464925826E+04  0.19464925826E+04  0.00000000000E+00 0. -1.
         24    2    1    2    0    0 -0.19060407674E+02 -0.17448739983E+03 -0.36761483731E+03  0.41529570781E+03  0.80750879097E+02 0.  0.
         25    2    1    2    0    0 -0.20869922405E+02  0.29329216438E+03 -0.82395542989E+03  0.88372474394E+03  0.12494408849E+03 0.  0.
         24    2    1    2    0    0  0.53667848122E+02 -0.66315721292E+02  0.23758172967E+03  0.26508176027E+03  0.80902710372E+02 0.  0.
        -11    1    3    3    0    0 -0.36040819538E+02 -0.70958331018E+02 -0.99687264397E+02  0.12756008818E+03  0.00000000000E+00 0.  1.
         12    1    3    3    0    0  0.16980411864E+02 -0.10352906881E+03 -0.26792757291E+03  0.28773561963E+03  0.00000000000E+00 0. -1.
        -11    1    5    5    0    0  0.49928566846E+02 -0.77158880547E+01  0.62207686625E+02  0.80138586156E+02  0.00000000000E+00 0.  1.
         12    1    5    5    0    0  0.37392812758E+01 -0.58599833237E+02  0.17537404304E+03  0.18494317412E+03  0.00000000000E+00 0. -1.
          5    1    4    4  501    0  0.33180849104E+02  0.44568853626E+02 -0.24510886828E+03  0.25137183369E+03  0.47000000000E+01 0.  1.
         -5    1    4    4    0  501 -0.54050771509E+02  0.24872331075E+03 -0.57884656161E+03  0.63235291025E+03  0.47000000000E+01 0.  1.
          1    1    1    2  502    0  0.24217083755E+02 -0.12034967540E+02 -0.68600990300E+03  0.68654271141E+03  0.00000000000E+00 0. -1.
          1    1    1    2  503    0 -0.37954601799E+02 -0.40454075717E+02  0.65581994923E+03  0.65816175052E+03  0.00000000000E+00 0. -1.
<mgrwt>
<rscale>  0 0.38728576E+02</rscale>
<asrwt>0</asrwt>
<pdfrwt beam="1">  1        2 0.14151678E+00 0.55464235E+02</pdfrwt>
<pdfrwt beam="2">  1        2 0.28624891E+00 0.27042699E+02</pdfrwt>
<totfact> 0.55453614E+01</totfact>
</mgrwt>
</event>
<event>
13    1  0.1595792E-008  0.1550815E+03  0.7546771E-02  0.1269686E+00
          2   -1    0    0  503    0  0.00000000000E+00  0.00000000000E+00  0.16416814927E+04  0.16416814927E+04  0.00000000000E+00 0. -1.
         -1   -1    0    0    0  501 -0.00000000000E+00 -0.00000000000E+00 -0.52960983416E+03  0.52960983416E+03  0.00000000000E+00 0.  1.
         24    2    1    2    0    0 -0.21817477482E+01 -0.44369713653E+02 -0.40589552032E+02  0.97406714675E+02  0.76597159326E+02 0.  0.
         25    2    1    2    0    0  0.20552547153E+03  0.14619402027E+03  0.30609509761E+02  0.28315389576E+03  0.12500310231E+03 0.  0.
         24    2    1    2    0    0 -0.13868233365E+02 -0.99764652261E+02  0.36273562174E+02  0.13487147601E+03  0.82031883993E+02 0.  0.
        -11    1    5    5    0    0 -0.40431161554E+02 -0.47980487291E+02  0.43321533967E+02  0.76246713309E+02  0.00000000000E+00 0.  1.
         12    1    5    5    0    0  0.26562928189E+02 -0.51784164970E+02 -0.70479717921E+01  0.58624762703E+02  0.00000000000E+00 0. -1.
        -13    1    3    3    0    0 -0.31340343163E+02 -0.19768767081E+02  0.56262459713E+01  0.37479006193E+02  0.00000000000E+00 0.  1.
         14    1    3    3    0    0  0.29158595415E+02 -0.24600946572E+02 -0.46215798003E+02  0.59927708482E+02  0.00000000000E+00 0. -1.
          5    1    4    4  502    0  0.93519963954E+02  0.46020596625E+02 -0.46458077118E+02  0.11421174152E+03  0.47000000000E+01 0. -1.
         -5    1    4    4    0  502  0.11200550757E+03  0.10017342364E+03  0.77067586880E+02  0.16894215424E+03  0.47000000000E+01 0. -1.
          1    1    1    2  503    0 -0.14560697042E+03  0.54262394045E+02  0.13618600584E+04  0.13706963982E+04  0.00000000000E+00 0. -1.
         -2    1    1    2    0  501 -0.43868519989E+02 -0.56322048396E+02 -0.27608191977E+03  0.28516284226E+03  0.00000000000E+00 0.  1.
<mgrwt>
<rscale>  0 0.10522055E+03</rscale>
<asrwt>0</asrwt>
<pdfrwt beam="1">  1        2 0.24142375E+00 0.15508151E+03</pdfrwt>
<pdfrwt beam="2">  1       -1 0.77883800E-01 0.71390617E+02</pdfrwt>
<totfact> 0.27200808E+01</totfact>
</mgrwt>
</event>
<event>
13    1  0.1595792E-008  0.2054780E+03  0.7546771E-02  0.1254888E+00
          2   -1    0    0  503    0  0.00000000000E+00  0.00000000000E+00  0.64930043099E+03  0.64930043099E+03  0.00000000000E+00 0. -1.
         -1   -1    0    0    0  501 -0.00000000000E+00 -0.00000000000E+00 -0.12445933455E+04  0.12445933455E+04  0.00000000000E+00 0.  1.
         24    2    1    2    0    0 -0.11373404825E+03  0.97148385075E+01 -0.21623801143E+03  0.25457294864E+03  0.70842760900E+02 0.  0.
         25    2    1    2    0    0 -0.15496217024E+03 -0.67530064250E+02 -0.23933134979E+03  0.31855532576E+03  0.12499766715E+03 0.  0.
         24    2    1    2    0    0 -0.80438773514E+02 -0.15778683853E+03  0.48395955788E+02  0.20054835940E+03  0.80687007772E+02 0.  0.
        -11    1    5    5    0    0 -0.78516824224E+02 -0.16174011109E+03  0.58874640220E+02  0.18918503768E+03  0.00000000000E+00 0.  1.
         12    1    5    5    0    0 -0.19219492907E+01  0.39532725606E+01 -0.10478684432E+02  0.11363321717E+02  0.00000000000E+00 0. -1.
        -11    1    3    3    0    0 -0.10666904587E+03  0.91330570469E+01 -0.13164016045E+03  0.16967860773E+03  0.00000000000E+00 0.  1.
         12    1    3    3    0    0 -0.70650023878E+01  0.58178146055E+00 -0.84597850979E+02  0.84894340911E+02  0.00000000000E+00 0. -1.
          5    1    4    4  502    0 -0.13371636451E+03 -0.53837954682E+02 -0.96738775929E+02  0.17366367574E+03  0.47000000000E+01 0. -1.
         -5    1    4    4    0  502 -0.21245805731E+02 -0.13692109568E+02 -0.14259257386E+03  0.14489165002E+03  0.47000000000E+01 0. -1.
          1    1    1    2  503    0  0.28704130683E+03  0.21076573082E+03  0.39612458583E+03  0.53266273815E+03  0.00000000000E+00 0. -1.
         -2    1    1    2    0  501  0.62093685176E+02  0.48363334492E+01 -0.58424409488E+03  0.58755440451E+03  0.00000000000E+00 0.  1.
<mgrwt>
<rscale>  0 0.11312616E+03</rscale>
<asrwt>0</asrwt>
<pdfrwt beam="1">  1        2 0.95485360E-01 0.20547800E+03</pdfrwt>
<pdfrwt beam="2">  1       -1 0.18302843E+00 0.62281746E+02</pdfrwt>
<totfact> 0.13795604E+01</totfact>
</mgrwt>
</event>
<event>
13    1  0.1595792E-008  0.1284620E+03  0.7546771E-02  0.1307353E+00
          2   -1    0    0  503    0  0.00000000000E+00  0.00000000000E+00  0.25350650981E+04  0.25350650981E+04  0.00000000000E+00 0. -1.
          2   -1    0    0  502    0 -0.00000000000E+00 -0.00000000000E+00 -0.47868261591E+04  0.47868261591E+04  0.00000000000E+00 0. -1.
         24    2    1    2    0    0  0.64231741397E+02 -0.76572126130E+02 -0.41253734041E+03  0.42916029220E+03  0.63265251606E+02 0.  0.
         25    2    1    2    0    0 -0.29793885390E+03  0.22223575165E+02 -0.20130283790E+03  0.38132695038E+03  0.12500385027E+03 0.  0.
         24    2    1    2    0    0  0.17615941044E+03 -0.10175910794E+02 -0.32325023784E+02  0.18687242169E+03  0.52351769601E+02 0.  0.
        -11    1    5    5    0    0  0.51093242635E+02  0.20718886227E+02 -0.12452713205E+02  0.56523108156E+02  0.00000000000E+00 0.  1.
         12    1    5    5    0    0  0.12506616780E+03 -0.30894797020E+02 -0.19872310578E+02  0.13034931354E+03  0.00000000000E+00 0. -1.
        -13    1    3    3    0    0  0.24099058635E+02 -0.26077774989E+02 -0.27461428093E+03  0.27690037606E+03  0.00000000000E+00 0.  1.
         14    1    3    3    0    0  0.40132682762E+02 -0.50494351141E+02 -0.13792305949E+03  0.15225991613E+03  0.00000000000E+00 0. -1.
          5    1    4    4  501    0 -0.98038955345E+02  0.37724836630E+02 -0.13281324188E+03  0.16939966730E+03  0.47000000000E+01 0.  1.
         -5    1    4    4    0  501 -0.19989989855E+03 -0.15501261465E+02 -0.68489596020E+02  0.21192728307E+03  0.47000000000E+01 0.  1.
          1    1    1    2  502    0 -0.59455811232E+02  0.11251739510E+02 -0.39630813647E+04  0.39635433009E+04  0.00000000000E+00 0. -1.
          1    1    1    2  503    0  0.11700351329E+03  0.53272722249E+02  0.23574855058E+04  0.23609882920E+04  0.00000000000E+00 0. -1.
<mgrwt>
<rscale>  0 0.88166756E+02</rscale>
<asrwt>0</asrwt>
<pdfrwt beam="1">  1        2 0.37280370E+00 0.12846197E+03</pdfrwt>
<pdfrwt beam="2">  1        2 0.70394501E+00 0.60511116E+02</pdfrwt>
<totfact> 0.15892356E-01</totfact>
</mgrwt>
</event>
<event>
13    1  0.1595792E-008  0.6009942E+02  0.7546771E-02  0.1403422E+00
          2   -1    0    0  502    0  0.00000000000E+00  0.00000000000E+00  0.26244536299E+04  0.26244536299E+04  0.00000000000E+00 0. -1.
          2   -1    0    0  503    0 -0.00000000000E+00 -0.00000000000E+00 -0.10375082903E+04  0.10375082903E+04  0.00000000000E+00 0. -1.
         24    2    1    2    0    0  0.30499193686E+02 -0.56059997994E+02 -0.17795886510E+01  0.10371133925E+03  0.81730965752E+02 0.  0.
         25    2    1    2    0    0  0.10471819449E+03 -0.96632210827E+02 -0.37004978261E+01  0.18958362776E+03  0.12499829521E+03 0.  0.
         24    2    1    2    0    0 -0.42949320047E+02  0.12842034419E+03  0.24693356567E+03  0.29336523286E+03  0.82161700957E+02 0.  0.
        -11    1    5    5    0    0 -0.64944795489E+02  0.10958871795E+03  0.21761523975E+03  0.25215849408E+03  0.00000000000E+00 0.  1.
         12    1    5    5    0    0  0.21995475441E+02  0.18831626237E+02  0.29318325913E+02  0.41206738781E+02  0.00000000000E+00 0. -1.
        -13    1    3    3    0    0 -0.26259769859E+02 -0.80760128981E+01 -0.93070553650E+01  0.29007219394E+02  0.00000000000E+00 0.  1.
         14    1    3    3    0    0  0.56758963545E+02 -0.47983985096E+02  0.75274667141E+01  0.74704119856E+02  0.00000000000E+00 0. -1.
          5    1    4    4  501    0  0.12881208593E+03 -0.67727836530E+02  0.16631920679E+02  0.14655485017E+03  0.47000000000E+01 0.  1.
         -5    1    4    4    0  501 -0.24093891446E+02 -0.28904374297E+02 -0.20332418505E+02  0.43028777589E+02  0.47000000000E+01 0.  1.
          1    1    1    2  502    0 -0.35811780318E+02  0.44742575652E+02  0.22089822813E+04  0.22097255714E+04  0.00000000000E+00 0. -1.
          1    1    1    2  503    0 -0.56456287809E+02 -0.20470711019E+02 -0.86349042096E+03  0.86557614889E+03  0.00000000000E+00 0. -1.
<mgrwt>
<rscale>  0 0.58687895E+02</rscale>
<asrwt>0</asrwt>
<pdfrwt beam="1">  1        2 0.38594906E+00 0.57309525E+02</pdfrwt>
<pdfrwt beam="2">  1        2 0.15257475E+00 0.60099417E+02</pdfrwt>
<totfact> 0.21880473E+01</totfact>
</mgrwt>
</event>
<event>
13    1  0.1595792E-008  0.1441000E+03  0.7546771E-02  0.1233416E+00
         -1   -1    0    0    0  501  0.00000000000E+00  0.00000000000E+00  0.22320244671E+04  0.22320244671E+04  0.00000000000E+00 0.  1.
         -3   -1    0    0    0  502 -0.00000000000E+00 -0.00000000000E+00 -0.19948613272E+04  0.19948613272E+04  0.00000000000E+00 0.  1.
         24    2    1    2    0    0  0.89632734595E+02 -0.13114740907E+03 -0.54177690036E+03  0.56990183148E+03  0.77667353123E+02 0.  0.
         25    2    1    2    0    0 -0.24557075592E+03  0.73705086415E+02 -0.32316551180E+03  0.43104369083E+03  0.12500111785E+03 0.  0.
         24    2    1    2    0    0 -0.95152917686E+02  0.31256156763E+02  0.11596914050E+04  0.11667565200E+04  0.80034974049E+02 0.  0.
        -11    1    5    5    0    0 -0.62457531241E+02 -0.15546923406E+02  0.42450657742E+03  0.42935822376E+03  0.00000000000E+00 0.  1.
         12    1    5    5    0    0 -0.32695386445E+02  0.46803080169E+02  0.73518482762E+03  0.73739829629E+03  0.00000000000E+00 0. -1.
        -13    1    3    3    0    0  0.89665240372E+02 -0.10383989063E+03 -0.50937398328E+03  0.52752671313E+03  0.00000000000E+00 0.  1.
         14    1    3    3    0    0 -0.32505776306E-01 -0.27307518446E+02 -0.32402917079E+02  0.42375118354E+02  0.00000000000E+00 0. -1.
          5    1    4    4  503    0 -0.20634403526E+03  0.37574089188E+02 -0.31260371432E+03  0.37647422923E+03  0.47000000000E+01 0. -1.
         -5    1    4    4    0  503 -0.39226720657E+02  0.36130997227E+02 -0.10561797486E+02  0.54569461609E+02  0.47000000000E+01 0. -1.
         -2    1    1    2    0  501  0.10805396405E+03  0.22071784662E+02  0.99289514642E+03  0.99900129861E+03  0.00000000000E+00 0.  1.
         -4    1    1    2    0  502  0.14303697496E+03  0.41143812323E+01 -0.10504809994E+04  0.10601824534E+04  0.00000000000E+00 0.  1.
<mgrwt>
<rscale>  0 0.12606385E+03</rscale>
<asrwt>0</asrwt>
<pdfrwt beam="1">  1       -1 0.32823889E+00 0.11028519E+03</pdfrwt>
<pdfrwt beam="2">  1       -3 0.29336196E+00 0.14409998E+03</pdfrwt>
<totfact> 0.65515132E-03</totfact>
</mgrwt>
</event>
<event>
13    1  0.1595792E-008  0.1136532E+03  0.7546771E-02  0.1299947E+00
          2   -1    0    0  503    0  0.00000000000E+00  0.00000000000E+00  0.16464519563E+04  0.16464519563E+04  0.00000000000E+00 0. -1.
          2   -1    0    0  502    0 -0.00000000000E+00 -0.00000000000E+00 -0.13790444888E+04  0.13790444888E+04  0.00000000000E+00 0. -1.
         24    2    1    2    0    0 -0.12855109578E+03 -0.44245796656E+02 -0.58624929768E+02  0.16911103228E+03  0.81722604587E+02 0.  0.
         25    2    1    2    0    0 -0.92937508493E+01 -0.92494152841E+02  0.15847784214E+03  0.22221352248E+03  0.12498832349E+03 0.  0.
         24    2    1    2    0    0  0.56346864358E+01  0.40138909361E+02  0.56034533388E+03  0.56784578718E+03  0.82577618550E+02 0.  0.
        -11    1    3    3    0    0 -0.37083865848E+02 -0.69458531430E+01  0.20144264603E+02  0.42769725023E+02  0.00000000000E+00 0.  1.
         12    1    3    3    0    0 -0.91467229936E+02 -0.37299943513E+02 -0.78769194371E+02  0.12634130726E+03  0.00000000000E+00 0. -1.
        -13    1    5    5    0    0  0.35001508375E+02  0.16403971644E+02  0.12437548642E+03  0.13024383861E+03  0.00000000000E+00 0.  1.
         14    1    5    5    0    0 -0.29366821939E+02  0.23734937717E+02  0.43596984746E+03  0.43760194857E+03  0.00000000000E+00 0. -1.
          5    1    4    4  501    0 -0.66370869368E+02 -0.55067954544E+02  0.75931684746E+02  0.11500122898E+03  0.47000000000E+01 0.  1.
         -5    1    4    4    0  501  0.57077118519E+02 -0.37426198298E+02  0.82546157398E+02  0.10721229351E+03  0.47000000000E+01 0.  1.
          1    1    1    2  502    0  0.11356442157E+02  0.72313137521E+02 -0.12239190629E+04  0.12261060440E+04  0.00000000000E+00 0. -1.
          1    1    1    2  503    0  0.12085371804E+03  0.24287902615E+02  0.83112828402E+03  0.84022005920E+03  0.00000000000E+00 0. -1.
<mgrwt>
<rscale>  0 0.91210462E+02</rscale>
<asrwt>0</asrwt>
<pdfrwt beam="1">  1        2 0.24212529E+00 0.11365316E+03</pdfrwt>
<pdfrwt beam="2">  1        2 0.20280066E+00 0.73199444E+02</pdfrwt>
<totfact> 0.39364443E+01</totfact>
</mgrwt>
</event>
<event>
13    1  0.1595792E-008  0.1830927E+03  0.7546771E-02  0.1400388E+00
          2   -1    0    0  503    0  0.00000000000E+00  0.00000000000E+00  0.57621456045E+03  0.57621456045E+03  0.00000000000E+00 0. -1.
          2   -1    0    0  502    0 -0.00000000000E+00 -0.00000000000E+00 -0.27772067097E+04  0.27772067097E+04  0.00000000000E+00 0. -1.
         24    2    1    2    0    0 -0.15497680834E+02  0.11390896314E+03 -0.11265846420E+04  0.11354529409E+04  0.82734488134E+02 0.  0.
         25    2    1    2    0    0  0.28902126805E+02 -0.36618280343E+02 -0.57568314754E+03  0.59094191606E+03  0.12500012164E+03 0.  0.
         24    2    1    2    0    0  0.54550109549E+02  0.77558321644E+02 -0.43261852525E+03  0.45058969290E+03  0.82953452320E+02 0.  0.
        -13    1    5    5    0    0  0.90596167672E+01 -0.11198046866E+02 -0.13408692784E+02  0.19679073956E+02  0.00000000000E+00 0.  1.
         14    1    5    5    0    0  0.45490492782E+02  0.88756368510E+02 -0.41920983246E+03  0.43091061895E+03  0.00000000000E+00 0. -1.
        -13    1    3    3    0    0 -0.12519129883E+02 -0.19858048659E+01 -0.27615140517E+02  0.30385325731E+02  0.00000000000E+00 0.  1.
         14    1    3    3    0    0 -0.29785509512E+01  0.11589476800E+03 -0.10989695015E+04  0.11050676152E+04  0.00000000000E+00 0. -1.
          5    1    4    4  501    0 -0.17295108341E+02 -0.69891494728E+02 -0.39184421556E+03  0.39843182738E+03  0.47000000000E+01 0.  1.
         -5    1    4    4    0  501  0.46197235145E+02  0.33273214384E+02 -0.18383893198E+03  0.19251008868E+03  0.47000000000E+01 0.  1.
          1    1    1    2  502    0  0.17258972703E+02  0.85656824580E+01 -0.60581858852E+03  0.60612490895E+03  0.00000000000E+00 0. -1.
          1    1    1    2  503    0 -0.85213528223E+02 -0.16341468690E+03  0.53971275402E+03  0.57031181133E+03  0.00000000000E+00 0. -1.
<mgrwt>
<rscale>  0 0.59395021E+02</rscale>
<asrwt>0</asrwt>
<pdfrwt beam="1">  1        2 0.84737435E-01 0.18309265E+03</pdfrwt>
<pdfrwt beam="2">  1        2 0.40841275E+00 0.19267669E+02</pdfrwt>
<totfact> 0.43107635E+01</totfact>
</mgrwt>
</event>
<event>
13    1  0.1595792E-008  0.9155214E+02  0.7546771E-02  0.1331559E+00
          2   -1    0    0  502    0  0.00000000000E+00  0.00000000000E+00  0.17875053427E+04  0.17875053427E+04  0.00000000000E+00 0. -1.
          2   -1    0    0  503    0 -0.00000000000E+00 -0.00000000000E+00 -0.21319859824E+04  0.21319859824E+04  0.00000000000E+00 0. -1.
         24    2    1    2    0    0 -0.23109865982E+02 -0.66721024613E+02 -0.27816218756E+02  0.11087121483E+03  0.80826500733E+02 0.  0.
         25    2    1    2    0    0  0.45770201010E+02 -0.52060715307E+02  0.21532356605E+03  0.25844629316E+03  0.12500007588E+03 0.  0.
         24    2    1    2    0    0  0.83545976052E+02  0.91831299354E+01  0.80515201393E+03  0.81367138191E+03  0.82018852799E+02 0.  0.
        -11    1    5    5    0    0  0.34018835009E+02  0.41887201238E+02  0.27798627011E+03  0.28317518453E+03  0.00000000000E+00 0.  1.
         12    1    5    5    0    0  0.49527141043E+02 -0.32704071302E+02  0.52716574383E+03  0.53049619739E+03  0.00000000000E+00 0. -1.
        -13    1    3    3    0    0 -0.20660916486E+02  0.16625256890E+01 -0.36419748733E+02  0.41905077968E+02  0.00000000000E+00 0.  1.
         14    1    3    3    0    0 -0.24489494955E+01 -0.68383550302E+02  0.86035299771E+01  0.68966136861E+02  0.00000000000E+00 0. -1.
          5    1    4    4  501    0  0.12447550638E+02 -0.49206048349E+02  0.12039401963E+02  0.52375699620E+02  0.47000000000E+01 0. -1.
         -5    1    4    4    0  501  0.33322650371E+02 -0.28546669579E+01  0.20328416409E+03  0.20607059354E+03  0.47000000000E+01 0. -1.
          1    1    1    2  502    0 -0.75645603140E+02  0.48426545984E+02  0.69622157987E+03  0.70199136455E+03  0.00000000000E+00 0. -1.
          1    1    1    2  503    0 -0.30560707940E+02  0.61172064000E+02 -0.20333615808E+04  0.20345110706E+04  0.00000000000E+00 0. -1.
<mgrwt>
<rscale>  0 0.79122933E+02</rscale>
<asrwt>0</asrwt>
<pdfrwt beam="1">  1        2 0.26286843E+00 0.91552143E+02</pdfrwt>
<pdfrwt beam="2">  1        2 0.31352735E+00 0.68381125E+02</pdfrwt>
<totfact> 0.15043266E+01</totfact>
</mgrwt>
</event>
<event>
13    1  0.1595792E-008  0.1038230E+03  0.7546771E-02  0.1377249E+00
          2   -1    0    0  503    0  0.00000000000E+00  0.00000000000E+00  0.39386271088E+04  0.39386271088E+04  0.00000000000E+00 0. -1.
          2   -1    0    0  502    0 -0.00000000000E+00 -0.00000000000E+00 -0.29175741077E+04  0.29175741077E+04  0.00000000000E+00 0. -1.
         24    2    1    2    0    0 -0.19876363709E+02  0.61276547781E+02 -0.11219454531E+02  0.10381367985E+03  0.80631996264E+02 0.  0.
         25    2    1    2    0    0  0.27836453348E+03  0.21273958183E+02 -0.19941241950E+03  0.36514445552E+03  0.12500306215E+03 0.  0.
         24    2    1    2    0    0 -0.17065190683E+03 -0.88832549028E+01  0.25375095309E+03  0.31597955681E+03  0.79073058660E+02 0.  0.
        -11    1    3    3    0    0  0.11655761737E+01  0.74806275904E+02 -0.19757942825E+02  0.77380319120E+02  0.00000000000E+00 0.  1.
         12    1    3    3    0    0 -0.21041939883E+02 -0.13529728123E+02  0.85384882941E+01  0.26433360729E+02  0.00000000000E+00 0. -1.
        -13    1    5    5    0    0 -0.79458277658E+02  0.24819869635E+02  0.72902089121E+02  0.11065422909E+03  0.00000000000E+00 0.  1.
         14    1    5    5    0    0 -0.91193629169E+02 -0.33703124538E+02  0.18084886397E+03  0.20532532772E+03  0.00000000000E+00 0. -1.
          5    1    4    4  501    0  0.75227025730E+02 -0.45924326374E+02 -0.84680983137E+02  0.12231560840E+03  0.47000000000E+01 0.  1.
         -5    1    4    4    0  501  0.20313750775E+03  0.67198284557E+02 -0.11473143637E+03  0.24282884712E+03  0.47000000000E+01 0.  1.
          1    1    1    2  502    0 -0.50591195668E+02 -0.90653044772E+02 -0.25454878618E+04  0.25476039524E+04  0.00000000000E+00 0. -1.
          1    1    1    2  503    0 -0.37245067279E+02  0.16985793711E+02  0.35234217838E+04  0.35236595720E+04  0.00000000000E+00 0. -1.
<mgrwt>
<rscale>  0 0.65192344E+02</rscale>
<asrwt>0</asrwt>
<pdfrwt beam="1">  1        2 0.57920987E+00 0.40935464E+02</pdfrwt>
<pdfrwt beam="2">  1        2 0.42905501E+00 0.10382298E+03</pdfrwt>
<totfact> 0.48785944E-01</totfact>
</mgrwt>
</event>
<event>
13    1  0.1595792E-008  0.9182687E+02  0.7546771E-02  0.1300748E+00
          2   -1    0    0  502    0  0.00000000000E+00  0.00000000000E+00  0.13279040499E+04  0.13279040499E+04  0.00000000000E+00 0. -1.
          2   -1    0    0  503    0 -0.00000000000E+00 -0.00000000000E+00 -0.16223241747E+04  0.16223241747E+04  0.00000000000E+00 0. -1.
         24    2    1    2    0    0  0.44966362440E+02 -0.50965542904E+02 -0.20829923858E+03  0.23355859385E+03  0.80880057217E+02 0.  0.
         25    2    1    2    0    0 -0.14503160038E+03  0.15630276539E+03 -0.48161657963E+02  0.25181429316E+03  0.12500469336E+03 0.  0.
         24    2    1    2    0    0 -0.43957662028E+02 -0.96929560310E+01  0.29063602802E+03  0.30473524804E+03  0.79800007293E+02 0.  0.
        -13    1    3    3    0    0  0.82107970343E+01  0.21690394171E+02 -0.33732938922E+02  0.40936555247E+02  0.00000000000E+00 0.  1.
         14    1    3    3    0    0  0.36755565406E+02 -0.72655937075E+02 -0.17456629966E+03  0.19262203861E+03  0.00000000000E+00 0. -1.
        -13    1    5    5    0    0 -0.63120511194E+02  0.89111683109E+01  0.18115732318E+03  0.19204578516E+03  0.00000000000E+00 0.  1.
         14    1    5    5    0    0  0.19162849166E+02 -0.18604124342E+02  0.10947870484E+03  0.11268946288E+03  0.00000000000E+00 0. -1.
          5    1    4    4  501    0 -0.76771472483E+02  0.22355391019E+02  0.25868927379E+02  0.84171930586E+02  0.47000000000E+01 0.  1.
         -5    1    4    4    0  501 -0.68260127896E+02  0.13394737437E+03 -0.74030585342E+02  0.16764236257E+03  0.47000000000E+01 0.  1.
          1    1    1    2  502    0  0.86328170967E+02 -0.25202979349E+02  0.91188184408E+03  0.91630575729E+03  0.00000000000E+00 0. -1.
          1    1    1    2  503    0  0.57694728999E+02 -0.70441287109E+02 -0.12404771003E+04  0.12438143322E+04  0.00000000000E+00 0. -1.
<mgrwt>
<rscale>  0 0.90874435E+02</rscale>
<asrwt>0</asrwt>
<pdfrwt beam="1">  1        2 0.19528001E+00 0.89931881E+02</pdfrwt>
<pdfrwt beam="2">  1        2 0.23857708E+00 0.91826867E+02</pdfrwt>
<totfact> 0.43065807E+01</totfact>
</mgrwt>
</event>
<event>
13    1  0.1595792E-008  0.4922059E+02  0.7546771E-02  0.1558113E+00
          2   -1    0    0  503    0  0.00000000000E+00  0.00000000000E+00  0.26171711966E+03  0.26171711966E+03  0.00000000000E+00 0. -1.
          2   -1    0    0  502    0 -0.00000000000E+00 -0.00000000000E+00 -0.79782422858E+03  0.79782422858E+03  0.00000000000E+00 0. -1.
         24    2    1    2    0    0  0.12547949388E+03 -0.88345316091E+02 -0.15885543076E+03  0.23840459537E+03  0.89731293033E+02 0.  0.
         25    2    1    2    0    0 -0.83722212997E+02  0.13030712363E+03 -0.94341676396E+02  0.22026019114E+03  0.12499937791E+03 0.  0.
         24    2    1    2    0    0 -0.11146486252E+03 -0.55722202334E+02  0.88612674077E+01  0.13565234478E+03  0.52855058175E+02 0.  0.
        -11    1    3    3    0    0  0.10221346713E+03 -0.10641032044E+03 -0.12371611164E+03  0.19255239661E+03  0.00000000000E+00 0.  1.
         12    1    3    3    0    0  0.23266026744E+02  0.18065004350E+02 -0.35139319119E+02  0.45852198756E+02  0.00000000000E+00 0. -1.
        -13    1    5    5    0    0 -0.50837161920E+01 -0.65296816855E+01  0.16228596985E+02  0.18216703141E+02  0.00000000000E+00 0.  1.
         14    1    5    5    0    0 -0.10638114633E+03 -0.49192520648E+02 -0.73673295775E+01  0.11743564164E+03  0.00000000000E+00 0. -1.
          5    1    4    4  501    0 -0.23745771066E+02  0.54835868000E+02 -0.10727184885E+03  0.12288276371E+03  0.47000000000E+01 0.  1.
         -5    1    4    4    0  501 -0.59976441932E+02  0.75471255628E+02  0.12930172450E+02  0.97377427428E+02  0.47000000000E+01 0.  1.
          1    1    1    2  502    0  0.20948573391E+02  0.10469986502E+02 -0.37121483924E+03  0.37195284676E+03  0.00000000000E+00 0. -1.
          1    1    1    2  503    0  0.48759008253E+02  0.32904082943E+01  0.79443570070E+02  0.93271370195E+02  0.00000000000E+00 0. -1.
<mgrwt>
<rscale>  0 0.33951604E+02</rscale>
<asrwt>0</asrwt>
<pdfrwt beam="1">  1        2 0.38487812E-01 0.49220587E+02</pdfrwt>
<pdfrwt beam="2">  1        2 0.11732709E+00 0.23419294E+02</pdfrwt>
<totfact> 0.82919815E+02</totfact>
</mgrwt>
</event>
<event>
13    1  0.1595792E-008  0.1356909E+03  0.7546771E-02  0.1306368E+00
          2   -1    0    0  502    0  0.00000000000E+00  0.00000000000E+00  0.11100817798E+04  0.11100817798E+04  0.00000000000E+00 0. -1.
          2   -1    0    0  503    0 -0.00000000000E+00 -0.00000000000E+00 -0.25912564853E+04  0.25912564853E+04  0.00000000000E+00 0. -1.
         24    2    1    2    0    0  0.11681239003E+03 -0.82766391243E+02 -0.12623893934E+03  0.20808137017E+03  0.82862396924E+02 0.  0.
         25    2    1    2    0    0 -0.11137755073E+03  0.34890885327E+03  0.10899685271E+03  0.40205343533E+03  0.12499721701E+03 0.  0.
         24    2    1    2    0    0  0.39184982178E+02 -0.17404311709E+03  0.12357382246E+03  0.23143170501E+03  0.80396984106E+02 0.  0.
        -11    1    3    3    0    0  0.54876280679E+02 -0.15395238310E+02 -0.64841739255E+01  0.57362566673E+02  0.00000000000E+00 0.  1.
         12    1    3    3    0    0  0.61936109346E+02 -0.67371152933E+02 -0.11975476542E+03  0.15071880350E+03  0.00000000000E+00 0. -1.
        -13    1    5    5    0    0  0.62883210134E+02 -0.14306864556E+03  0.10466217684E+03  0.18808802918E+03  0.00000000000E+00 0.  1.
         14    1    5    5    0    0 -0.23698227956E+02 -0.30974471526E+02  0.18911645619E+02  0.43343675832E+02  0.00000000000E+00 0. -1.
          5    1    4    4  501    0 -0.56022025272E+02  0.16198596950E+03  0.11584379981E+03  0.20692945074E+03  0.47000000000E+01 0. -1.
         -5    1    4    4    0  501 -0.55355525455E+02  0.18692288377E+03 -0.68469470980E+01  0.19512398458E+03  0.47000000000E+01 0. -1.
          1    1    1    2  502    0 -0.37941953791E+02  0.43609089361E+02  0.63273839622E+03  0.63537329389E+03  0.00000000000E+00 0. -1.
          1    1    1    2  503    0 -0.66778676854E+01 -0.13570843430E+03 -0.22202448376E+04  0.22243984607E+04  0.00000000000E+00 0. -1.
<mgrwt>
<rscale>  0 0.88563670E+02</rscale>
<asrwt>0</asrwt>
<pdfrwt beam="1">  1        2 0.16324732E+00 0.57804364E+02</pdfrwt>
<pdfrwt beam="2">  1        2 0.38106713E+00 0.13569086E+03</pdfrwt>
<totfact> 0.18491531E+01</totfact>
</mgrwt>
</event>
<event>
13    1  0.1595792E-008  0.5751873E+02  0.7546771E-02  0.1597774E+00
          2   -1    0    0  503    0  0.00000000000E+00  0.00000000000E+00  0.71888271796E+03  0.71888271796E+03  0.00000000000E+00 0. -1.
          2   -1    0    0  502    0 -0.00000000000E+00 -0.00000000000E+00 -0.34347931596E+04  0.34347931596E+04  0.00000000000E+00 0. -1.
         24    2    1    2    0    0  0.69044208570E+02 -0.18816151452E+01 -0.27360698857E+03  0.29347782568E+03  0.80608974413E+02 0.  0.
         25    2    1    2    0    0 -0.12354206421E+03  0.34117954066E+03 -0.13418091154E+04  0.13956156831E+04  0.12500124871E+03 0.  0.
         24    2    1    2    0    0  0.26206157921E+02 -0.27299269969E+03  0.24498365256E+03  0.37653516050E+03  0.80931824828E+02 0.  0.
        -13    1    5    5    0    0 -0.11323356627E+02 -0.28907073880E+02  0.61455539964E+02  0.68852165673E+02  0.00000000000E+00 0.  1.
         14    1    5    5    0    0  0.37529514548E+02 -0.24408562581E+03  0.18352811260E+03  0.30768299483E+03  0.00000000000E+00 0. -1.
        -13    1    3    3    0    0  0.52627469028E+02  0.17120252246E+02 -0.74567132437E+02  0.92860167850E+02  0.00000000000E+00 0.  1.
         14    1    3    3    0    0  0.16416739542E+02 -0.19001867392E+02 -0.19903985614E+03  0.20061765783E+03  0.00000000000E+00 0. -1.
          5    1    4    4  501    0 -0.99973614576E+02  0.15297839312E+03 -0.82682994290E+03  0.84679806144E+03  0.47000000000E+01 0.  1.
         -5    1    4    4    0  501 -0.23568449630E+02  0.18820114754E+03 -0.51497917253E+03  0.54881762170E+03  0.47000000000E+01 0.  1.
          1    1    1    2  502    0  0.11055279437E+01 -0.15637808665E+02 -0.17145003088E+04  0.17145719793E+04  0.00000000000E+00 0. -1.
          1    1    1    2  503    0  0.27186169772E+02 -0.50667417153E+02  0.36902231863E+03  0.37347522895E+03  0.00000000000E+00 0. -1.
<mgrwt>
<rscale>  0 0.30028516E+02</rscale>
<asrwt>0</asrwt>
<pdfrwt beam="1">  1        2 0.10571805E+00 0.57518729E+02</pdfrwt>
<pdfrwt beam="2">  1        2 0.50511664E+00 0.15676838E+02</pdfrwt>
<totfact> 0.16906206E+01</totfact>
</mgrwt>
</event>
<event>
13    1  0.1595792E-008  0.4709652E+02  0.7546771E-02  0.1478355E+00
          2   -1    0    0  503    0  0.00000000000E+00  0.00000000000E+00  0.15973955708E+04  0.15973955708E+04  0.00000000000E+00 0. -1.
          2   -1    0    0  502    0 -0.00000000000E+00 -0.00000000000E+00 -0.15136663922E+04  0.15136663922E+04  0.00000000000E+00 0. -1.
         24    2    1    2    0    0  0.41460111858E+02  0.32324877798E+02  0.14730111220E+02  0.95799908346E+02  0.78719804768E+02 0.  0.
         25    2    1    2    0    0  0.45776867945E+02  0.24177735530E+03  0.80316413625E+01  0.27611794179E+03  0.12499919735E+03 0.  0.
         24    2    1    2    0    0 -0.16627157442E+02 -0.22242652096E+03  0.91364969512E+03  0.94390771672E+03  0.80349192259E+02 0.  0.
        -13    1    5    5    0    0  0.23633302884E+02 -0.20918927469E+02  0.11694351414E+03  0.12112770133E+03  0.00000000000E+00 0.  1.
         14    1    5    5    0    0 -0.40260460325E+02 -0.20150759349E+03  0.79670618098E+03  0.82278001539E+03  0.00000000000E+00 0. -1.
        -13    1    3    3    0    0 -0.21233594250E+02  0.61260651007E+00 -0.68215224961E+01  0.22310848946E+02  0.00000000000E+00 0.  1.
         14    1    3    3    0    0  0.62693706108E+02  0.31712271288E+02  0.21551633716E+02  0.73489059400E+02  0.00000000000E+00 0. -1.
          5    1    4    4  501    0 -0.65197384490E+01  0.21833209882E+03  0.51070955648E+01  0.21853966412E+03  0.47000000000E+01 0. -1.
         -5    1    4    4    0  501  0.52296606394E+02  0.23445256480E+02  0.29245457976E+01  0.57578277674E+02  0.47000000000E+01 0. -1.
          1    1    1    2  502    0 -0.29049173535E+02 -0.30041243484E+02 -0.13224639020E+04  0.13231239938E+04  0.00000000000E+00 0. -1.
          1    1    1    2  503    0 -0.41560648826E+02 -0.21634468657E+02  0.46978163296E+03  0.47211240233E+03  0.00000000000E+00 0. -1.
<mgrwt>
<rscale>  0 0.44363522E+02</rscale>
<asrwt>0</asrwt>
<pdfrwt beam="1">  1        2 0.23491111E+00 0.47096515E+02</pdfrwt>
<pdfrwt beam="2">  1        2 0.22259800E+00 0.41789123E+02</pdfrwt>
<totfact> 0.40341439E+01</totfact>
</mgrwt>
</event>
<event>
13    1  0.1595792E-008  0.1799163E+03  0.7546771E-02  0.1355138E+00
          2   -1    0    0  503    0  0.00000000000E+00  0.00000000000E+00  0.66408723031E+03  0.66408723031E+03  0.00000000000E+00 0. -1.
          2   -1    0    0  502    0 -0.00000000000E+00 -0.00000000000E+00 -0.16038930034E+04  0.16038930034E+04  0.00000000000E+00 0. -1.
         24    2    1    2    0    0 -0.17694616899E+03  0.21194727026E+02 -0.57680193209E+03  0.60843640784E+03  0.75731303580E+02 0.  0.
         25    2    1    2    0    0  0.10153641799E+03 -0.61489316106E+01 -0.98063487687E+02  0.18864889596E+03  0.12499801915E+03 0.  0.
         24    2    1    2    0    0 -0.10869687376E+03  0.59254577929E+02  0.26341814219E+03  0.30065305375E+03  0.75346039838E+02 0.  0.
        -11    1    3    3    0    0 -0.26525179697E+02  0.30452502869E+02 -0.16664281814E+03  0.17146652422E+03  0.00000000000E+00 0.  1.
         12    1    3    3    0    0 -0.15042098930E+03 -0.92577758433E+01 -0.41015911395E+03  0.43696988362E+03  0.00000000000E+00 0. -1.
        -13    1    5    5    0    0 -0.94118024317E+02  0.63035013436E+02  0.26210400282E+03  0.28553480299E+03  0.00000000000E+00 0.  1.
         14    1    5    5    0    0 -0.14578849446E+02 -0.37804355079E+01  0.13141393709E+01  0.15118250762E+02  0.00000000000E+00 0. -1.
          5    1    4    4  501    0 -0.23336995007E+00 -0.28388694806E+02 -0.77086587485E+02  0.82282467296E+02  0.47000000000E+01 0.  1.
         -5    1    4    4    0  501  0.10176978794E+03  0.22239763195E+02 -0.20976900202E+02  0.10636642866E+03  0.47000000000E+01 0.  1.
          1    1    1    2  502    0  0.16220931285E+03 -0.92380837764E+02 -0.83838614802E+03  0.85891641826E+03  0.00000000000E+00 0. -1.
          1    1    1    2  503    0  0.21897311920E+02  0.18080464420E+02  0.31002765248E+03  0.31132545794E+03  0.00000000000E+00 0. -1.
<mgrwt>
<rscale>  0 0.71477984E+02</rscale>
<asrwt>0</asrwt>
<pdfrwt beam="1">  1        2 0.97659887E-01 0.28397103E+02</pdfrwt>
<pdfrwt beam="2">  1        2 0.23586662E+00 0.17991632E+03</pdfrwt>
<totfact> 0.10554756E+02</totfact>
</mgrwt>
</event>
<event>
13    1  0.1595792E-008  0.1897430E+03  0.7546771E-02  0.1244058E+00
          2   -1    0    0  503    0  0.00000000000E+00  0.00000000000E+00  0.25336046732E+04  0.25336046732E+04  0.00000000000E+00 0. -1.
          2   -1    0    0  502    0 -0.00000000000E+00 -0.00000000000E+00 -0.12130059234E+04  0.12130059234E+04  0.00000000000E+00 0. -1.
         24    2    1    2    0    0 -0.88781345681E+02  0.84826599035E+02  0.16113622426E+03  0.21791381113E+03  0.80273700954E+02 0.  0.
         25    2    1    2    0    0  0.61633864738E+03  0.86821793236E+01 -0.64385429237E+02  0.63223144871E+03  0.12498965054E+03 0.  0.
         24    2    1    2    0    0 -0.39205924602E+03 -0.62504893120E+02  0.66227150433E+03  0.77625501552E+03  0.79693096412E+02 0.  0.
        -11    1    5    5    0    0 -0.31399723203E+03 -0.49243845959E+02  0.46079404191E+03  0.55977706915E+03  0.00000000000E+00 0.  1.
         12    1    5    5    0    0 -0.78062013991E+02 -0.13261047162E+02  0.20147746242E+03  0.21647794637E+03  0.00000000000E+00 0. -1.
        -13    1    3    3    0    0 -0.40797901047E+02  0.67342353950E+01  0.12337219939E+02  0.43151195256E+02  0.00000000000E+00 0.  1.
         14    1    3    3    0    0 -0.47983444634E+02  0.78092363640E+02  0.14879900433E+03  0.17476261587E+03  0.00000000000E+00 0. -1.
          5    1    4    4  501    0  0.48000232323E+03  0.55613434014E+02 -0.31470792161E+02  0.48425983222E+03  0.47000000000E+01 0.  1.
         -5    1    4    4    0  501  0.13633632415E+03 -0.46931254690E+02 -0.32914637076E+02  0.14797161648E+03  0.47000000000E+01 0.  1.
          1    1    1    2  502    0  0.64404743921E+02 -0.38741824052E+02 -0.77001543519E+03  0.77367478335E+03  0.00000000000E+00 0. -1.
          1    1    1    2  503    0 -0.19990279960E+03  0.77379388142E+01  0.13315918856E+04  0.13465355379E+04  0.00000000000E+00 0. -1.
<mgrwt>
<rscale>  0 0.11941912E+03</rscale>
<asrwt>0</asrwt>
<pdfrwt beam="1">  1        2 0.37258892E+00 0.18974303E+03</pdfrwt>
<pdfrwt beam="2">  1        2 0.17838322E+00 0.75159164E+02</pdfrwt>
<totfact> 0.16489757E+01</totfact>
</mgrwt>
</event>
<event>
13    1  0.1595792E-008  0.6037112E+02  0.7546771E-02  0.1572357E+00
          2   -1    0    0  503    0  0.00000000000E+00  0.00000000000E+00  0.67803688320E+03  0.67803688320E+03  0.00000000000E+00 0. -1.
          2   -1    0    0  502    0 -0.00000000000E+00 -0.00000000000E+00 -0.12281266414E+04  0.12281266414E+04  0.00000000000E+00 0. -1.
         24    2    1    2    0    0  0.52773837169E+02 -0.21019652990E+03 -0.46995415881E+03  0.52456222041E+03  0.85679359380E+02 0.  0.
         25    2    1    2    0    0 -0.83090297994E+02  0.23260739034E+03 -0.17551186888E+03  0.32777967333E+03  0.12499960988E+03 0.  0.
         24    2    1    2    0    0 -0.19759912736E+01  0.10131502166E+02 -0.24595390460E+01  0.80577718545E+02  0.79875950799E+02 0.  0.
        -11    1    3    3    0    0 -0.22637885843E+02 -0.48901213594E+02 -0.13192523029E+03  0.14250638215E+03  0.00000000000E+00 0.  1.
         12    1    3    3    0    0  0.75411723012E+02 -0.16129531631E+03 -0.33802892853E+03  0.38205583827E+03  0.00000000000E+00 0. -1.
        -11    1    5    5    0    0  0.16014604267E+02  0.23049608109E+02 -0.32700416813E+02  0.43093726267E+02  0.00000000000E+00 0.  1.
         12    1    5    5    0    0 -0.17990595541E+02 -0.12918105943E+02  0.30240877767E+02  0.37483992279E+02  0.00000000000E+00 0. -1.
          5    1    4    4  501    0 -0.12149113897E+02  0.84423537911E+02 -0.13290537031E+03  0.15799006987E+03  0.47000000000E+01 0.  1.
         -5    1    4    4    0  501 -0.70941184097E+02  0.14818385243E+03 -0.42606498575E+02  0.16978960346E+03  0.47000000000E+01 0.  1.
          1    1    1    2  502    0  0.49601053226E+02 -0.34807220598E+02 -0.43546336296E+03  0.43965912656E+03  0.00000000000E+00 0. -1.
          1    1    1    2  503    0 -0.17308601127E+02  0.22648579957E+01  0.53329917151E+03  0.53358478575E+03  0.00000000000E+00 0. -1.
<mgrwt>
<rscale>  0 0.32463016E+02</rscale>
<asrwt>0</asrwt>
<pdfrwt beam="1">  1        2 0.99711307E-01 0.17456152E+02</pdfrwt>
<pdfrwt beam="2">  1        2 0.18060686E+00 0.60371115E+02</pdfrwt>
<totfact> 0.17471960E+02</totfact>
</mgrwt>
</event>
<event>
13    1  0.1595792E-008  0.4823110E+02  0.7546771E-02  0.1673827E+00
          2   -1    0    0  502    0  0.00000000000E+00  0.00000000000E+00  0.27942582960E+04  0.27942582960E+04  0.00000000000E+00 0. -1.
          2   -1    0    0  503    0 -0.00000000000E+00 -0.00000000000E+00 -0.13837606873E+04  0.13837606873E+04  0.00000000000E+00 0. -1.
         24    2    1    2    0    0 -0.65592978035E+03 -0.91522845039E+03 -0.51389313467E+03  0.12401312715E+04  0.77151951352E+02 0.  0.
         25    2    1    2    0    0  0.88181447478E+03  0.65592705331E+03  0.15723540684E+04  0.19224353665E+04  0.12499341887E+03 0.  0.
         24    2    1    2    0    0 -0.23286764851E+03  0.20371806365E+03  0.93045843442E+02  0.33209816637E+03  0.76832753063E+02 0.  0.
        -11    1    3    3    0    0 -0.62009916348E+03 -0.87357922787E+03 -0.50545723671E+03  0.11845466044E+04  0.00000000000E+00 0.  1.
         12    1    3    3    0    0 -0.35830616874E+02 -0.41649222518E+02 -0.84358979550E+01  0.55584667097E+02  0.00000000000E+00 0. -1.
        -11    1    5    5    0    0 -0.68893468681E+01 -0.64543235693E+01 -0.96349954824E+00  0.94894533238E+01  0.00000000000E+00 0.  1.
         12    1    5    5    0    0 -0.22597830165E+03  0.21017238722E+03  0.94009342990E+02  0.32260871305E+03  0.00000000000E+00 0. -1.
          5    1    4    4  501    0  0.41357335049E+03  0.23651864947E+03  0.63723121614E+03  0.79565677311E+03  0.47000000000E+01 0.  1.
         -5    1    4    4    0  501  0.46824112430E+03  0.41940840384E+03  0.93512285230E+03  0.11267785934E+04  0.47000000000E+01 0.  1.
          1    1    1    2  502    0  0.14367801851E+02  0.46033712275E+02  0.46976543304E+03  0.47223415640E+03  0.00000000000E+00 0. -1.
          1    1    1    2  503    0 -0.73848477685E+01  0.95496211516E+01 -0.21077460157E+03  0.21112002252E+03  0.00000000000E+00 0. -1.
<mgrwt>
<rscale>  0 0.24129689E+02</rscale>
<asrwt>0</asrwt>
<pdfrwt beam="1">  1        2 0.41092034E+00 0.48231095E+02</pdfrwt>
<pdfrwt beam="2">  1        2 0.20349422E+00 0.12071920E+02</pdfrwt>
<totfact> 0.13942982E+01</totfact>
</mgrwt>
</event>
<event>
13    1  0.1595792E-008  0.1371753E+03  0.7546771E-02  0.1292433E+00
          2   -1    0    0  502    0  0.00000000000E+00  0.00000000000E+00  0.26226059686E+04  0.26226059686E+04  0.00000000000E+00 0. -1.
          2   -1    0    0  503    0 -0.00000000000E+00 -0.00000000000E+00 -0.10130243888E+04  0.10130243888E+04  0.00000000000E+00 0. -1.
         24    2    1    2    0    0  0.13891598965E+03  0.23193214794E+03  0.15465988744E+03  0.31635911892E+03  0.55436792060E+02 0.  0.
         25    2    1    2    0    0  0.12786734905E+03 -0.80625731409E+03  0.63773366630E+03  0.10434231236E+04  0.12500668093E+03 0.  0.
         24    2    1    2    0    0 -0.13912028336E+03  0.47770153784E+03  0.54113090608E+03  0.73947702859E+03  0.80314418392E+02 0.  0.
        -13    1    5    5    0    0 -0.72838378728E+02  0.30908521822E+03  0.39430573978E+03  0.50627672074E+03  0.00000000000E+00 0.  1.
         14    1    5    5    0    0 -0.66281904634E+02  0.16861631962E+03  0.14682516630E+03  0.23320030785E+03  0.00000000000E+00 0. -1.
        -13    1    3    3    0    0  0.44417968782E+02  0.10963807110E+03  0.43724578116E+02  0.12611622146E+03  0.00000000000E+00 0.  1.
         14    1    3    3    0    0  0.94498020865E+02  0.12229407684E+03  0.11093530933E+03  0.19024289746E+03  0.00000000000E+00 0. -1.
          5    1    4    4  501    0  0.90740077035E+02 -0.28510619520E+03  0.18297432813E+03  0.35074349442E+03  0.47000000000E+01 0. -1.
         -5    1    4    4    0  501  0.37127272012E+02 -0.52115111889E+03  0.45475933817E+03  0.69267962920E+03  0.47000000000E+01 0. -1.
          1    1    1    2  502    0  0.57205280303E+01  0.64772040311E+02  0.89756329934E+03  0.89991556158E+03  0.00000000000E+00 0. -1.
          1    1    1    2  503    0 -0.13338358336E+03  0.31851588001E+02 -0.62150617933E+03  0.63645552469E+03  0.00000000000E+00 0. -1.
<mgrwt>
<rscale>  0 0.94444204E+02</rscale>
<asrwt>0</asrwt>
<pdfrwt beam="1">  1        2 0.38567735E+00 0.65024162E+02</pdfrwt>
<pdfrwt beam="2">  1        2 0.14897418E+00 0.13717528E+03</pdfrwt>
<totfact> 0.21331760E+01</totfact>
</mgrwt>
</event>
<event>
13    1  0.1595792E-008  0.3907989E+02  0.7546771E-02  0.1601005E+00
          2   -1    0    0  502    0  0.00000000000E+00  0.00000000000E+00  0.25172112675E+04  0.25172112675E+04  0.00000000000E+00 0. -1.
          2   -1    0    0  503    0 -0.00000000000E+00 -0.00000000000E+00 -0.15505001351E+04  0.15505001351E+04  0.00000000000E+00 0. -1.
         24    2    1    2    0    0  0.23646620993E+03  0.39941480219E+03 -0.55624026584E+03  0.72895286035E+03  0.80750149380E+02 0.  0.
         25    2    1    2    0    0  0.27456754614E+03 -0.27014022135E+03 -0.15534780264E+03  0.43372930039E+03  0.12500035858E+03 0.  0.
         24    2    1    2    0    0 -0.50925581732E+03 -0.15281235154E+03  0.99391461884E+03  0.11290405652E+04  0.64600512131E+02 0.  0.
        -11    1    3    3    0    0  0.20048082131E+03  0.28020482848E+03 -0.43763356092E+03  0.55698333841E+03  0.00000000000E+00 0.  1.
         12    1    3    3    0    0  0.35985388612E+02  0.11920997371E+03 -0.11860670492E+03  0.17196952194E+03  0.00000000000E+00 0. -1.
        -11    1    5    5    0    0 -0.19726436934E+03 -0.29898552855E+02  0.40003372726E+03  0.44702811748E+03  0.00000000000E+00 0.  1.
         12    1    5    5    0    0 -0.31199144798E+03 -0.12291379868E+03  0.59388089158E+03  0.68201244776E+03  0.00000000000E+00 0. -1.
          5    1    4    4  501    0  0.98004289441E+02 -0.29088302959E+02 -0.14484108546E+02  0.10335787110E+03  0.47000000000E+01 0. -1.
         -5    1    4    4    0  501  0.17656325670E+03 -0.24105191839E+03 -0.14086369409E+03  0.33037142929E+03  0.47000000000E+01 0. -1.
          1    1    1    2  502    0  0.21109829614E+02 -0.81512413864E+01  0.12293824662E+04  0.12295907107E+04  0.00000000000E+00 0. -1.
          1    1    1    2  503    0 -0.22887768361E+02  0.31689012082E+02 -0.54499788419E+03  0.54639796595E+03  0.00000000000E+00 0. -1.
<mgrwt>
<rscale>  0 0.29737775E+02</rscale>
<asrwt>0</asrwt>
<pdfrwt beam="1">  1        2 0.37017813E+00 0.22628912E+02</pdfrwt>
<pdfrwt beam="2">  1        2 0.22801472E+00 0.39079885E+02</pdfrwt>
<totfact> 0.16178953E+01</totfact>
</mgrwt>
</event>
<event>
13    1  0.1595792E-008  0.1239066E+03  0.7546771E-02  0.1279041E+00
          2   -1    0    0  502    0  0.00000000000E+00  0.00000000000E+00  0.50094099825E+03  0.50094099825E+03  0.00000000000E+00 0. -1.
          2   -1    0    0  503    0 -0.00000000000E+00 -0.00000000000E+00 -0.25162336658E+04  0.25162336658E+04  0.00000000000E+00 0. -1.
         24    2    1    2    0    0  0.18202153188E+03 -0.50970410049E+02 -0.72750587857E+03  0.75610871436E+03  0.81888728195E+02 0.  0.
         25    2    1    2    0    0  0.17191525754E+01 -0.71110334912E+01 -0.66019754578E+03  0.67196721522E+03  0.12500246634E+03 0.  0.
         24    2    1    2    0    0 -0.17465406509E+02 -0.54151966137E+02 -0.18501691369E+02  0.10276094699E+03  0.83546536620E+02 0.  0.
        -11    1    5    5    0    0  0.30988125244E+02 -0.36163585644E+02 -0.18457901742E+02  0.51076050841E+02  0.00000000000E+00 0.  1.
         12    1    5    5    0    0 -0.48453531754E+02 -0.17988380493E+02 -0.43789627014E-01  0.51684896147E+02  0.00000000000E+00 0. -1.
        -13    1    3    3    0    0  0.52971092662E+02  0.12473080949E+02 -0.11917362429E+03  0.13101094280E+03  0.00000000000E+00 0.  1.
         14    1    3    3    0    0  0.12905043922E+03 -0.63443490999E+02 -0.60833225429E+03  0.62509777157E+03  0.00000000000E+00 0. -1.
          5    1    4    4  501    0 -0.33079414569E+02 -0.55873857516E+02 -0.33667747860E+03  0.34291391079E+03  0.47000000000E+01 0.  1.
         -5    1    4    4    0  501  0.34798567145E+02  0.48762824025E+02 -0.32352006719E+03  0.32905330443E+03  0.47000000000E+01 0.  1.
          1    1    1    2  502    0 -0.13439176407E+03  0.37037859864E+02  0.42589942874E+03  0.44813309710E+03  0.00000000000E+00 0. -1.
          1    1    1    2  503    0 -0.31883513876E+02  0.75195549814E+02 -0.10349869805E+04  0.10382046903E+04  0.00000000000E+00 0. -1.
<mgrwt>
<rscale>  0 0.10059902E+03</rscale>
<asrwt>0</asrwt>
<pdfrwt beam="1">  1        2 0.73667796E-01 0.12390658E+03</pdfrwt>
<pdfrwt beam="2">  1        2 0.37003435E+00 0.81675756E+02</pdfrwt>
<totfact> 0.54096677E+01</totfact>
</mgrwt>
</event>
<event>
13    1  0.1595792E-008  0.5668557E+02  0.7546771E-02  0.1485787E+00
          2   -1    0    0  502    0  0.00000000000E+00  0.00000000000E+00  0.25735944248E+04  0.25735944248E+04  0.00000000000E+00 0. -1.
          2   -1    0    0  503    0 -0.00000000000E+00 -0.00000000000E+00 -0.35859912940E+04  0.35859912940E+04  0.00000000000E+00 0. -1.
         24    2    1    2    0    0 -0.37650795540E+03 -0.53211671012E+02 -0.18630936572E+03  0.43038928105E+03  0.77032662409E+02 0.  0.
         25    2    1    2    0    0  0.59940945880E+03  0.56305305604E+03  0.43587562299E+03  0.93911334753E+03  0.12500351019E+03 0.  0.
         24    2    1    2    0    0 -0.15905491818E+03 -0.57253621494E+03  0.13318408192E+04  0.14598078677E+04  0.64365040800E+02 0.  0.
        -11    1    5    5    0    0 -0.91641488301E+02 -0.40146870242E+03  0.97454012778E+03  0.10579715223E+04  0.00000000000E+00 0.  1.
         12    1    5    5    0    0 -0.67413429879E+02 -0.17106751252E+03  0.35730069138E+03  0.40183634533E+03  0.00000000000E+00 0. -1.
        -13    1    3    3    0    0 -0.34013062022E+03 -0.55387323683E+02 -0.19041102696E+03  0.39371684448E+03  0.00000000000E+00 0.  1.
         14    1    3    3    0    0 -0.36377335180E+02  0.21756526716E+01  0.41016612435E+01  0.36672436574E+02  0.00000000000E+00 0. -1.
          5    1    4    4  501    0  0.49978635754E+02  0.95479541470E+02  0.82168909136E+02  0.13560245757E+03  0.47000000000E+01 0. -1.
         -5    1    4    4    0  501  0.54943082305E+03  0.46757351457E+03  0.35370671386E+03  0.80351088995E+03  0.47000000000E+01 0. -1.
          1    1    1    2  502    0 -0.25185501647E+02  0.21244633309E+02  0.36722680539E+03  0.36870200777E+03  0.00000000000E+00 0. -1.
          1    1    1    2  503    0 -0.38661083572E+02  0.41450196598E+02 -0.29610307511E+04  0.29615732148E+04  0.00000000000E+00 0. -1.
<mgrwt>
<rscale>  0 0.43217349E+02</rscale>
<asrwt>0</asrwt>
<pdfrwt beam="1">  1        2 0.37846977E+00 0.32949111E+02</pdfrwt>
<pdfrwt beam="2">  1        2 0.52735165E+00 0.56685574E+02</pdfrwt>
<totfact> 0.13213676E+00</totfact>
</mgrwt>
</event>
<event>
13    1  0.1595792E-008  0.2023711E+03  0.7546771E-02  0.1289273E+00
         -3   -1    0    0    0  501 -0.00000000000E+00  0.00000000000E+00  0.93372674113E+03  0.93372674113E+03  0.00000000000E+00 0.  1.
          2   -1    0    0  503    0  0.00000000000E+00 -0.00000000000E+00 -0.19757214348E+04  0.19757214348E+04  0.00000000000E+00 0. -1.
         24    2    1    2    0    0 -0.63391733562E+02 -0.89843962843E+01  0.41508013417E+03  0.42760037680E+03  0.80320191722E+02 0.  0.
         25    2    1    2    0    0 -0.82873963771E+02  0.23191055019E+02 -0.13886856641E+02  0.15239483140E+03  0.12500168377E+03 0.  0.
         24    2    1    2    0    0 -0.29737904473E+02 -0.14489111853E+03 -0.24061944897E+03  0.29317130601E+03  0.78574272216E+02 0.  0.
        -11    1    3    3    0    0 -0.52158840775E+02  0.31204951563E+02  0.25924272998E+03  0.26627257974E+03  0.00000000000E+00 0.  1.
         12    1    3    3    0    0 -0.11232892787E+02 -0.40189347848E+02  0.15583740419E+03  0.16132779706E+03  0.00000000000E+00 0. -1.
        -13    1    5    5    0    0  0.93168171144E+01 -0.13693920105E+02 -0.81984568383E+02  0.83640875067E+02  0.00000000000E+00 0.  1.
         14    1    5    5    0    0 -0.39054721587E+02 -0.13119719843E+03 -0.15863488058E+03  0.20953043094E+03  0.00000000000E+00 0. -1.
          5    1    4    4  502    0  0.23596125977E+02 -0.24122531394E+02 -0.10832465760E+02  0.35750608336E+02  0.47000000000E+01 0. -1.
         -5    1    4    4    0  502 -0.10647008975E+03  0.47313586413E+02 -0.30543908807E+01  0.11664422306E+03  0.47000000000E+01 0. -1.
          1    1    1    2  503    0  0.19685855109E+03  0.90360042760E+02 -0.16109185214E+04  0.16254158572E+04  0.00000000000E+00 0. -1.
         -4    1    1    2    0  501 -0.20854949288E+02  0.40324417036E+02  0.40834999912E+03  0.41086580449E+03  0.00000000000E+00 0.  1.
<mgrwt>
<rscale>  0 0.95850218E+02</rscale>
<asrwt>0</asrwt>
<pdfrwt beam="2">  1        2 0.29054727E+00 0.20237112E+03</pdfrwt>
<pdfrwt beam="1">  1       -3 0.13731276E+00 0.45398100E+02</pdfrwt>
<totfact> 0.23164662E+00</totfact>
</mgrwt>
</event>
<event>
13    1  0.1595792E-008  0.5459335E+02  0.7546771E-02  0.1426037E+00
          4   -1    0    0  503    0 -0.00000000000E+00  0.00000000000E+00  0.19470119719E+03  0.19470119719E+03  0.00000000000E+00 0. -1.
          2   -1    0    0  502    0  0.00000000000E+00 -0.00000000000E+00 -0.19581266472E+04  0.19581266472E+04  0.00000000000E+00 0. -1.
         24    2    1    2    0    0 -0.53413772656E+01  0.13439337805E+02  0.31413957419E+02  0.88639897061E+02  0.81615246851E+02 0.  0.
         25    2    1    2    0    0  0.17220769377E+02 -0.92521469909E+02 -0.13575680275E+03  0.20715231762E+03  0.12500158363E+03 0.  0.
         24    2    1    2    0    0 -0.52135801128E+02 -0.18809732434E+02 -0.28318914960E+03  0.29936139295E+03  0.79681875884E+02 0.  0.
        -13    1    3    3    0    0 -0.39770845476E+02 -0.49279059683E+00 -0.33902879035E+00  0.39775343279E+02  0.00000000000E+00 0.  1.
         14    1    3    3    0    0  0.34429468211E+02  0.13932128402E+02  0.31752986209E+02  0.48864553782E+02  0.00000000000E+00 0. -1.
        -13    1    5    5    0    0 -0.52112313264E+02 -0.34797744495E+02 -0.11986013050E+03  0.13525171755E+03  0.00000000000E+00 0.  1.
         14    1    5    5    0    0 -0.23487864056E-01  0.15988012061E+02 -0.16332901909E+03  0.16410967540E+03  0.00000000000E+00 0. -1.
          5    1    4    4  501    0 -0.43268728781E+02 -0.10573630176E+02 -0.11171192147E+02  0.46161348328E+02  0.47000000000E+01 0. -1.
         -5    1    4    4    0  501  0.60489498159E+02 -0.81947839733E+02 -0.12458561060E+03  0.16099096929E+03  0.47000000000E+01 0. -1.
          1    1    1    2  502    0  0.26271585877E+02  0.45969460742E+02 -0.14583078599E+04  0.14592687216E+04  0.00000000000E+00 0. -1.
          3    1    1    2  503    0  0.13984823140E+02  0.51922403796E+02  0.82414404823E+02  0.98405515173E+02  0.00000000000E+00 0. -1.
<mgrwt>
<rscale>  0 0.53763886E+02</rscale>
<asrwt>0</asrwt>
<pdfrwt beam="2">  1        2 0.28795983E+00 0.52947026E+02</pdfrwt>
<pdfrwt beam="1">  1        4 0.28632526E-01 0.54593349E+02</pdfrwt>
<totfact> 0.55040293E+01</totfact>
</mgrwt>
</event>
<event>
13    1  0.1595792E-008  0.4861195E+02  0.7546771E-02  0.1473002E+00
          2   -1    0    0  502    0  0.00000000000E+00  0.00000000000E+00  0.11505706887E+04  0.11505706887E+04  0.00000000000E+00 0. -1.
          2   -1    0    0  503    0 -0.00000000000E+00 -0.00000000000E+00 -0.19200055047E+04  0.19200055047E+04  0.00000000000E+00 0. -1.
         24    2    1    2    0    0 -0.14115701307E+02  0.24462823669E+02 -0.20622047170E+02  0.88542880700E+02  0.81344269176E+02 0.  0.
         25    2    1    2    0    0  0.11977160405E+03 -0.34287527084E+02 -0.11462252507E+02  0.17685818578E+03  0.12500625182E+03 0.  0.
         24    2    1    2    0    0 -0.95859121111E+02  0.33689058458E+02  0.36937145894E+02  0.13514965957E+03  0.81099654599E+02 0.  0.
        -11    1    5    5    0    0 -0.76206735983E+02 -0.14847331107E+02  0.22232728087E+02  0.80760163747E+02  0.00000000000E+00 0.  1.
         12    1    5    5    0    0 -0.19652385128E+02  0.48536389565E+02  0.14704417808E+02  0.54389495827E+02  0.00000000000E+00 0. -1.
        -11    1    3    3    0    0 -0.46412133281E+02  0.26990124239E+02 -0.11861588616E+02  0.54984090487E+02  0.00000000000E+00 0.  1.
         12    1    3    3    0    0  0.32296431975E+02 -0.25273005695E+01 -0.87604585545E+01  0.33558790213E+02  0.00000000000E+00 0. -1.
          5    1    4    4  501    0  0.89441842445E+02 -0.71542927737E+02  0.23805770722E+02  0.11707706184E+03  0.47000000000E+01 0.  1.
         -5    1    4    4    0  501  0.30329761607E+02  0.37255400654E+02 -0.35268023229E+02  0.59781123940E+02  0.47000000000E+01 0.  1.
          1    1    1    2  502    0 -0.39367745116E+02  0.14795152284E+02  0.94705824182E+03  0.94799157659E+03  0.00000000000E+00 0. -1.
          1    1    1    2  503    0  0.29570963482E+02 -0.38659507327E+02 -0.17213459040E+04  0.17220338907E+04  0.00000000000E+00 0. -1.
<mgrwt>
<rscale>  0 0.45215366E+02</rscale>
<asrwt>0</asrwt>
<pdfrwt beam="1">  1        2 0.16920157E+00 0.42056104E+02</pdfrwt>
<pdfrwt beam="2">  1        2 0.28235375E+00 0.48611953E+02</pdfrwt>
<totfact> 0.42831981E+01</totfact>
</mgrwt>
</event>
<event>
13    1  0.1595792E-008  0.6805672E+02  0.7546771E-02  0.1411978E+00
          2   -1    0    0  503    0  0.00000000000E+00  0.00000000000E+00  0.13874982701E+04  0.13874982701E+04  0.00000000000E+00 0. -1.
          2   -1    0    0  502    0 -0.00000000000E+00 -0.00000000000E+00 -0.23292291806E+04  0.23292291806E+04  0.00000000000E+00 0. -1.
         24    2    1    2    0    0  0.29279273061E+02  0.43986503069E+02 -0.17684759680E+03  0.20121496102E+03  0.80126773053E+02 0.  0.
         25    2    1    2    0    0 -0.54352689467E+02  0.71011542847E+02 -0.43648898809E+03  0.46275988891E+03  0.12500889565E+03 0.  0.
         24    2    1    2    0    0  0.85066593999E+02 -0.18352463815E+02  0.11494073143E+04  0.11554362301E+04  0.79514586341E+02 0.  0.
        -11    1    3    3    0    0  0.19127392947E+02 -0.15888370661E+02 -0.10118194301E+03  0.10419252888E+03  0.00000000000E+00 0.  1.
         12    1    3    3    0    0  0.10151880115E+02  0.59874873730E+02 -0.75665653785E+02  0.97022432132E+02  0.00000000000E+00 0. -1.
        -13    1    5    5    0    0  0.15757850190E+02 -0.56986206999E+01  0.35004272420E+02  0.38808287879E+02  0.00000000000E+00 0.  1.
         14    1    5    5    0    0  0.69308743808E+02 -0.12653843115E+02  0.11144030419E+04  0.11166279423E+04  0.00000000000E+00 0. -1.
          5    1    4    4  501    0 -0.20316869091E+02  0.35288773690E+02 -0.39773915589E+03  0.39984571880E+03  0.47000000000E+01 0.  1.
         -5    1    4    4    0  501 -0.34035820376E+02  0.35722769158E+02 -0.38749832202E+02  0.62914170110E+02  0.47000000000E+01 0.  1.
          1    1    1    2  502    0 -0.27514279157E+02 -0.62218512998E+02 -0.16841936407E+04  0.16855670851E+04  0.00000000000E+00 0. -1.
          1    1    1    2  503    0 -0.32478898436E+02 -0.34427069104E+02  0.20639200077E+03  0.21174928551E+03  0.00000000000E+00 0. -1.
<mgrwt>
<rscale>  0 0.56754783E+02</rscale>
<asrwt>0</asrwt>
<pdfrwt beam="1">  1        2 0.20404386E+00 0.47329715E+02</pdfrwt>
<pdfrwt beam="2">  1        2 0.34253370E+00 0.68056724E+02</pdfrwt>
<totfact> 0.19960706E+01</totfact>
</mgrwt>
</event>
<event>
13    1  0.1595792E-008  0.1151038E+03  0.7546771E-02  0.1301346E+00
         -3   -1    0    0    0  501 -0.00000000000E+00  0.00000000000E+00  0.47798956459E+03  0.47798956459E+03  0.00000000000E+00 0.  1.
          2   -1    0    0  503    0  0.00000000000E+00 -0.00000000000E+00 -0.49250096332E+03  0.49250096332E+03  0.00000000000E+00 0. -1.
         24    2    1    2    0    0 -0.57632835237E+02 -0.11086139631E+02  0.43573405801E+02  0.10572453245E+03  0.76384480617E+02 0.  0.
         25    2    1    2    0    0 -0.99248212048E+01 -0.15198032812E+03  0.13075344834E+03  0.23646332660E+03  0.12498767284E+03 0.  0.
         24    2    1    2    0    0 -0.14449338646E+02  0.35626295800E+02 -0.70458685226E+02  0.11246026696E+03  0.78770990729E+02 0.  0.
        -11    1    5    5    0    0  0.24358831534E+02  0.53510999777E+01 -0.55773725908E+02  0.61095789105E+02  0.00000000000E+00 0.  1.
         12    1    5    5    0    0 -0.38808170180E+02  0.30275195822E+02 -0.14684959317E+02  0.51364477851E+02  0.00000000000E+00 0. -1.
        -13    1    3    3    0    0 -0.45604094317E+02 -0.24556896725E+02  0.61413399225E+02  0.80339157325E+02  0.00000000000E+00 0.  1.
         14    1    3    3    0    0 -0.12028740921E+02  0.13470757094E+02 -0.17839993425E+02  0.25385375125E+02  0.00000000000E+00 0. -1.
          5    1    4    4  502    0 -0.44594320821E+02 -0.12708234302E+02  0.61143703487E+02  0.76881695771E+02  0.47000000000E+01 0.  1.
         -5    1    4    4    0  502  0.34669499616E+02 -0.13927209381E+03  0.69609744853E+02  0.15958163083E+03  0.47000000000E+01 0.  1.
          1    1    1    2  503    0  0.67448730842E+02  0.23274872105E+02 -0.29869216753E+03  0.30709617696E+03  0.00000000000E+00 0. -1.
         -4    1    1    2    0  501  0.14558264247E+02  0.10416529984E+03  0.18031259989E+03  0.20874622494E+03  0.00000000000E+00 0.  1.
<mgrwt>
<rscale>  0 0.90624728E+02</rscale>
<asrwt>0</asrwt>
<pdfrwt beam="2">  1        2 0.72426612E-01 0.71351601E+02</pdfrwt>
<pdfrwt beam="1">  1       -3 0.70292583E-01 0.11510381E+03</pdfrwt>
<totfact> 0.81039848E+01</totfact>
</mgrwt>
</event>
<event>
13    1  0.1595792E-008  0.1402153E+03  0.7546771E-02  0.1342853E+00
          2   -1    0    0  502    0  0.00000000000E+00  0.00000000000E+00  0.44842699981E+04  0.44842699981E+04  0.00000000000E+00 0. -1.
          2   -1    0    0  503    0 -0.00000000000E+00 -0.00000000000E+00 -0.19035767949E+04  0.19035767949E+04  0.00000000000E+00 0. -1.
         24    2    1    2    0    0  0.28082094251E+02  0.22963938569E+03  0.92564497867E+02  0.26150697553E+03  0.79340156986E+02 0.  0.
         25    2    1    2    0    0  0.10971274239E+03 -0.40910806309E+02  0.49695780601E+03  0.52564497816E+03  0.12500000876E+03 0.  0.
         24    2    1    2    0    0 -0.58712876935E+02 -0.58283781615E+02  0.74436675853E+03  0.75319696197E+03  0.79872343130E+02 0.  0.
        -11    1    3    3    0    0  0.48905895762E+02  0.17163787751E+03  0.46101005628E+02  0.18432756266E+03  0.00000000000E+00 0.  1.
         12    1    3    3    0    0 -0.20823801511E+02  0.58001508174E+02  0.46463492238E+02  0.77179412869E+02  0.00000000000E+00 0. -1.
        -13    1    5    5    0    0 -0.70365747136E+02 -0.67954303377E+02  0.68401575563E+03  0.69097516573E+03  0.00000000000E+00 0.  1.
         14    1    5    5    0    0  0.11652870201E+02  0.96705217620E+01  0.60351002906E+02  0.62221796236E+02  0.00000000000E+00 0. -1.
          5    1    4    4  501    0  0.79757832660E+02 -0.72351461010E+02  0.21694997658E+03  0.24225075463E+03  0.47000000000E+01 0.  1.
         -5    1    4    4    0  501  0.29954909735E+02  0.31440654701E+02  0.28000782943E+03  0.28339422353E+03  0.47000000000E+01 0.  1.
          1    1    1    2  502    0 -0.40275569915E+02  0.39670982704E+01  0.30442984316E+04  0.30445674241E+04  0.00000000000E+00 0. -1.
          1    1    1    2  503    0 -0.38806389796E+02 -0.13441189603E+03 -0.17974942908E+04  0.18029304532E+04  0.00000000000E+00 0. -1.
<mgrwt>
<rscale>  0 0.75329817E+02</rscale>
<asrwt>0</asrwt>
<pdfrwt beam="1">  1        2 0.65945147E+00 0.40470476E+02</pdfrwt>
<pdfrwt beam="2">  1        2 0.27993776E+00 0.14021534E+03</pdfrwt>
<totfact> 0.63486677E-01</totfact>
</mgrwt>
</event>
<event>
13    1  0.1595792E-008  0.1416894E+03  0.7546771E-02  0.1219534E+00
          2   -1    0    0  503    0  0.00000000000E+00  0.00000000000E+00  0.17633355821E+04  0.17633355821E+04  0.00000000000E+00 0. -1.
          2   -1    0    0  502    0 -0.00000000000E+00 -0.00000000000E+00 -0.27768012968E+04  0.27768012968E+04  0.00000000000E+00 0. -1.
         24    2    1    2    0    0  0.26758237974E+03  0.18179282923E+03 -0.66432698046E+03  0.74547184271E+03  0.98736865446E+02 0.  0.
         25    2    1    2    0    0  0.54998505035E+03  0.30481079972E+03 -0.18473403868E+03  0.66719307084E+03  0.12500699777E+03 0.  0.
         24    2    1    2    0    0 -0.83380254987E+03 -0.40952096787E+03 -0.10378606830E+03  0.93775158633E+03  0.75315167141E+02 0.  0.
        -11    1    5    5    0    0 -0.58098539183E+03 -0.31455946636E+03 -0.95672464043E+02  0.66756640402E+03  0.00000000000E+00 0.  1.
         12    1    5    5    0    0 -0.25281715804E+03 -0.94961501505E+02 -0.81136042549E+01  0.27018518231E+03  0.00000000000E+00 0. -1.
        -13    1    3    3    0    0  0.18413141932E+03  0.15178019829E+03 -0.39045194383E+03  0.45759625066E+03  0.00000000000E+00 0.  1.
         14    1    3    3    0    0  0.83450960421E+02  0.30012630941E+02 -0.27387503663E+03  0.28787559205E+03  0.00000000000E+00 0. -1.
          5    1    4    4  501    0  0.12580616287E+03  0.29574820479E+02 -0.75872922670E+02  0.14993548952E+03  0.47000000000E+01 0.  1.
         -5    1    4    4    0  501  0.42417888748E+03  0.27523597924E+03 -0.10886111601E+03  0.51725758132E+03  0.47000000000E+01 0.  1.
          1    1    1    2  502    0 -0.11296503453E+03 -0.86674070086E+02 -0.11166905212E+04  0.11257314127E+04  0.00000000000E+00 0. -1.
          1    1    1    2  503    0  0.12920015430E+03  0.95914090008E+01  0.10560718940E+04  0.10639889663E+04  0.00000000000E+00 0. -1.
<mgrwt>
<rscale>  0 0.13548677E+03</rscale>
<asrwt>0</asrwt>
<pdfrwt beam="1">  1        2 0.25931406E+00 0.12955568E+03</pdfrwt>
<pdfrwt beam="2">  1        2 0.40835313E+00 0.14168939E+03</pdfrwt>
<totfact> 0.65373803E+00</totfact>
</mgrwt>
</event>
<event>
13    1  0.1595792E-008  0.6050342E+02  0.7546771E-02  0.1475619E+00
          2   -1    0    0  503    0  0.00000000000E+00  0.00000000000E+00  0.10960561073E+04  0.10960561073E+04  0.00000000000E+00 0. -1.
          2   -1    0    0  502    0 -0.00000000000E+00 -0.00000000000E+00 -0.28994616634E+04  0.28994616634E+04  0.00000000000E+00 0. -1.
         24    2    1    2    0    0 -0.17666455993E+01 -0.24566140055E+02 -0.19969683036E+03  0.21697762828E+03  0.81202529807E+02 0.  0.
         25    2    1    2    0    0 -0.10068245813E+03  0.19727185820E+03 -0.64106510639E+03  0.68966668579E+03  0.12499009343E+03 0.  0.
         24    2    1    2    0    0  0.67235717933E+02 -0.16439003701E+03  0.72450076529E+02  0.20748928843E+03  0.79107933817E+02 0.  0.
        -11    1    3    3    0    0 -0.34762737897E+02 -0.12326135989E+02 -0.15878084455E+03  0.16300839908E+03  0.00000000000E+00 0.  1.
         12    1    3    3    0    0  0.32996092297E+02 -0.12240004066E+02 -0.40915985813E+02  0.53969229210E+02  0.00000000000E+00 0. -1.
        -11    1    5    5    0    0  0.21645381939E+02 -0.50640038763E+01 -0.75401144772E+01  0.23473815643E+02  0.00000000000E+00 0.  1.
         12    1    5    5    0    0  0.45590335994E+02 -0.15932603313E+03  0.79990191006E+02  0.18401547279E+03  0.00000000000E+00 0. -1.
          5    1    4    4  501    0 -0.85729261412E+01  0.35618292041E+00  0.27174236885E+01  0.10153635822E+02  0.47000000000E+01 0.  1.
         -5    1    4    4    0  501 -0.92109531991E+02  0.19691567528E+03 -0.64378253007E+03  0.67951304997E+03  0.47000000000E+01 0.  1.
          1    1    1    2  502    0 -0.10383649261E+02  0.31499044148E+02 -0.19571059345E+04  0.19573869441E+04  0.00000000000E+00 0. -1.
          1    1    1    2  503    0  0.45597035060E+02 -0.39814725286E+02  0.92201223859E+03  0.92399722406E+03  0.00000000000E+00 0. -1.
<mgrwt>
<rscale>  0 0.44795987E+02</rscale>
<asrwt>0</asrwt>
<pdfrwt beam="1">  1        2 0.16118472E+00 0.60503418E+02</pdfrwt>
<pdfrwt beam="2">  1        2 0.42639141E+00 0.33166398E+02</pdfrwt>
<totfact> 0.16217335E+01</totfact>
</mgrwt>
</event>
<event>
13    1  0.1595792E-008  0.1631291E+03  0.7546771E-02  0.1269078E+00
          2   -1    0    0  502    0  0.00000000000E+00  0.00000000000E+00  0.23137881101E+04  0.23137881101E+04  0.00000000000E+00 0. -1.
          2   -1    0    0  503    0 -0.00000000000E+00 -0.00000000000E+00 -0.19450332387E+04  0.19450332387E+04  0.00000000000E+00 0. -1.
         24    2    1    2    0    0  0.10956088666E+03 -0.15654083542E+03 -0.40769289476E+03  0.45825449942E+03  0.85294013593E+02 0.  0.
         25    2    1    2    0    0  0.11831575932E+03  0.17791132048E+03  0.51220972052E+03  0.56888915524E+03  0.12500006519E+03 0.  0.
         24    2    1    2    0    0  0.66023270972E+00 -0.47606271717E+02  0.14146543887E+03  0.16974132263E+03  0.80826067576E+02 0.  0.
        -11    1    5    5    0    0 -0.27929871667E+02 -0.39385314012E+02  0.12853421755E+03  0.13730377188E+03  0.00000000000E+00 0.  1.
         12    1    5    5    0    0  0.28590104377E+02 -0.82209577047E+01  0.12931221318E+02  0.32437550750E+02  0.00000000000E+00 0. -1.
        -13    1    3    3    0    0  0.48271065404E+02 -0.84915658754E+02 -0.29810576427E+03  0.31370019373E+03  0.00000000000E+00 0.  1.
         14    1    3    3    0    0  0.61289821255E+02 -0.71625176664E+02 -0.10958713049E+03  0.14455430568E+03  0.00000000000E+00 0. -1.
          5    1    4    4  501    0  0.14740092472E+02  0.33746574116E+00  0.16227617343E+03  0.16301236356E+03  0.47000000000E+01 0.  1.
         -5    1    4    4    0  501  0.10357566685E+03  0.17757385474E+03  0.34993354708E+03  0.40587679168E+03  0.47000000000E+01 0.  1.
          1    1    1    2  502    0 -0.66188248597E+02  0.16728022986E+02  0.15871192848E+04  0.15885868989E+04  0.00000000000E+00 0. -1.
          1    1    1    2  503    0 -0.16234863009E+03  0.95077636711E+01 -0.14643466780E+04  0.14733494727E+04  0.00000000000E+00 0. -1.
<mgrwt>
<rscale>  0 0.10553068E+03</rscale>
<asrwt>0</asrwt>
<pdfrwt beam="1">  1        2 0.34026296E+00 0.68269400E+02</pdfrwt>
<pdfrwt beam="2">  1        2 0.28603430E+00 0.16312908E+03</pdfrwt>
<totfact> 0.97802967E+00</totfact>
</mgrwt>
</event>
<event>
13    1  0.1595792E-008  0.7615177E+02  0.7546771E-02  0.1360130E+00
         -1   -1    0    0    0  501 -0.00000000000E+00  0.00000000000E+00  0.29545404990E+03  0.29545404990E+03  0.00000000000E+00 0.  1.
          2   -1    0    0  503    0  0.00000000000E+00 -0.00000000000E+00 -0.23704062983E+04  0.23704062983E+04  0.00000000000E+00 0. -1.
         24    2    1    2    0    0  0.32827212020E+02 -0.51606293121E+02  0.46047786977E+02  0.11507384580E+03  0.85911326159E+02 0.  0.
         25    2    1    2    0    0 -0.90610068117E+02 -0.76237992396E+02  0.47209516306E+02  0.17853848201E+03  0.12499934079E+03 0.  0.
         24    2    1    2    0    0  0.18667493096E+02  0.53575508824E+01 -0.79212768095E+02  0.11454578102E+03  0.80429439073E+02 0.  0.
        -13    1    5    5    0    0 -0.31597048929E+02  0.49739648823E+01 -0.36970802521E+02  0.48887156460E+02  0.00000000000E+00 0.  1.
         14    1    5    5    0    0  0.50264542025E+02  0.38358600017E+00 -0.42241965573E+02  0.65658624557E+02  0.00000000000E+00 0. -1.
        -13    1    3    3    0    0  0.51589306918E+02 -0.14771344253E+02  0.63770888033E+00  0.53666152013E+02  0.00000000000E+00 0.  1.
         14    1    3    3    0    0 -0.18762094898E+02 -0.36834948868E+02  0.45410078097E+02  0.61407693784E+02  0.00000000000E+00 0. -1.
          5    1    4    4  502    0 -0.12071803761E+03 -0.51384311791E+02  0.25902761738E+02  0.13381418149E+03  0.47000000000E+01 0. -1.
         -5    1    4    4    0  502  0.30107969491E+02 -0.24853680605E+02  0.21306754568E+02  0.44724300517E+02  0.47000000000E+01 0. -1.
          1    1    1    2  503    0  0.40425918763E+02  0.50034829579E+02 -0.21572185254E+04  0.21581773573E+04  0.00000000000E+00 0. -1.
         -2    1    1    2    0  501 -0.13105557626E+01  0.72451905055E+02  0.68221741819E+02  0.99524882112E+02  0.00000000000E+00 0.  1.
<mgrwt>
<rscale>  0 0.69989158E+02</rscale>
<asrwt>0</asrwt>
<pdfrwt beam="2">  1        2 0.34858916E+00 0.64325260E+02</pdfrwt>
<pdfrwt beam="1">  1       -1 0.43449125E-01 0.76151767E+02</pdfrwt>
<totfact> 0.39205501E+01</totfact>
</mgrwt>
</event>
<event>
13    1  0.1595792E-008  0.6437734E+02  0.7546771E-02  0.1500537E+00
          2   -1    0    0  503    0  0.00000000000E+00  0.00000000000E+00  0.23756215119E+03  0.23756215119E+03  0.00000000000E+00 0. -1.
          2   -1    0    0  502    0 -0.00000000000E+00 -0.00000000000E+00 -0.20164130535E+04  0.20164130535E+04  0.00000000000E+00 0. -1.
         24    2    1    2    0    0  0.34236022455E+02 -0.80196393530E+02 -0.84867406112E+03  0.85693170302E+03  0.80502887202E+02 0.  0.
         25    2    1    2    0    0  0.14532734775E+03 -0.60035015073E+02 -0.11281345085E+03  0.23038172828E+03  0.12499849997E+03 0.  0.
         24    2    1    2    0    0 -0.10927446403E+03  0.15760708705E+03 -0.17073412712E+03  0.27048053423E+03  0.85021614063E+02 0.  0.
        -11    1    5    5    0    0 -0.53617700843E+01  0.58237469372E+02 -0.19112130582E+02  0.61527432521E+02  0.00000000000E+00 0.  1.
         12    1    5    5    0    0 -0.10391269394E+03  0.99369617676E+02 -0.15162199654E+03  0.20895310171E+03  0.00000000000E+00 0. -1.
        -13    1    3    3    0    0 -0.46536607069E+01  0.62082113906E+01 -0.88096345935E+01  0.11739169831E+02  0.00000000000E+00 0.  1.
         14    1    3    3    0    0  0.38889683162E+02 -0.86404604921E+02 -0.83986442653E+03  0.84519253319E+03  0.00000000000E+00 0. -1.
          5    1    4    4  501    0 -0.15418032850E+02 -0.31286103390E+02 -0.74098191087E+01  0.35965697845E+02  0.47000000000E+01 0.  1.
         -5    1    4    4    0  501  0.16074538060E+03 -0.28748911684E+02 -0.10540363174E+03  0.19441603043E+03  0.47000000000E+01 0.  1.
          1    1    1    2  502    0 -0.63838083144E+02  0.80084603926E+01 -0.76867194313E+03  0.77135983331E+03  0.00000000000E+00 0. -1.
          1    1    1    2  503    0 -0.64508230329E+01 -0.25384138837E+02  0.12204267994E+03  0.12482140582E+03  0.00000000000E+00 0. -1.
<mgrwt>
<rscale>  0 0.41062220E+02</rscale>
<asrwt>0</asrwt>
<pdfrwt beam="1">  1        2 0.34935610E-01 0.26190984E+02</pdfrwt>
<pdfrwt beam="2">  1        2 0.29653133E+00 0.64377343E+02</pdfrwt>
<totfact> 0.20680595E+02</totfact>
</mgrwt>
</event>
<event>
13    1  0.1595792E-008  0.7871365E+02  0.7546771E-02  0.1427232E+00
          2   -1    0    0  503    0  0.00000000000E+00  0.00000000000E+00  0.30609740613E+03  0.30609740613E+03  0.00000000000E+00 0. -1.
          2   -1    0    0  502    0 -0.00000000000E+00 -0.00000000000E+00 -0.19437642976E+04  0.19437642976E+04  0.00000000000E+00 0. -1.
         24    2    1    2    0    0 -0.94046037177E+02 -0.80147643680E+02 -0.60782831885E+03  0.62539488846E+03  0.79969990781E+02 0.  0.
         25    2    1    2    0    0  0.56440252318E+02  0.34345071193E+02 -0.43031757794E+03  0.45294977346E+03  0.12500077358E+03 0.  0.
         24    2    1    2    0    0 -0.24191196087E+02  0.38045337490E+02  0.14802937358E+03  0.17511978473E+03  0.81985254095E+02 0.  0.
        -11    1    5    5    0    0 -0.26543320207E+02 -0.18174888257E+02  0.83612099227E+02  0.89587150574E+02  0.00000000000E+00 0.  1.
         12    1    5    5    0    0  0.23521241204E+01  0.56220225747E+02  0.64417274354E+02  0.85532634159E+02  0.00000000000E+00 0. -1.
        -11    1    3    3    0    0 -0.22525578655E+02 -0.33426729640E+02 -0.69603691270E+02  0.80432715898E+02  0.00000000000E+00 0.  1.
         12    1    3    3    0    0 -0.71520458522E+02 -0.46720914040E+02 -0.53822462758E+03  0.54496217257E+03  0.00000000000E+00 0. -1.
          5    1    4    4  501    0  0.50767674425E+02 -0.16383569961E+02 -0.65765496085E+02  0.84811370738E+02  0.47000000000E+01 0. -1.
         -5    1    4    4    0  501  0.56725778932E+01  0.50728641154E+02 -0.36455208185E+03  0.36813840272E+03  0.47000000000E+01 0. -1.
          1    1    1    2  502    0 -0.12657908301E+02  0.34117086181E+02 -0.85901511617E+03  0.85978553607E+03  0.00000000000E+00 0. -1.
          1    1    1    2  503    0  0.74454889248E+02 -0.26359851185E+02  0.11146474792E+03  0.13661172100E+03  0.00000000000E+00 0. -1.
<mgrwt>
<rscale>  0 0.53519652E+02</rscale>
<asrwt>0</asrwt>
<pdfrwt beam="1">  1        2 0.45014324E-01 0.78713651E+02</pdfrwt>
<pdfrwt beam="2">  1        2 0.28584769E+00 0.36389534E+02</pdfrwt>
<totfact> 0.18786572E+02</totfact>
</mgrwt>
</event>
<event>
13    1  0.1595792E-008  0.7265649E+02  0.7546771E-02  0.1393683E+00
          2   -1    0    0  503    0  0.00000000000E+00  0.00000000000E+00  0.30670567250E+04  0.30670567250E+04  0.00000000000E+00 0. -1.
          2   -1    0    0  502    0 -0.00000000000E+00 -0.00000000000E+00 -0.32247074858E+04  0.32247074858E+04  0.00000000000E+00 0. -1.
         24    2    1    2    0    0  0.27062633601E+03 -0.46983950784E+02 -0.15999484992E+03  0.32725513281E+03  0.77791160008E+02 0.  0.
         25    2    1    2    0    0 -0.54844907050E+03 -0.24084307471E+03 -0.15638637089E+03  0.63156933392E+03  0.12498542710E+03 0.  0.
         24    2    1    2    0    0  0.27156351005E+03  0.37127480734E+03  0.16574328009E+04  0.17215729067E+04  0.71680269395E+02 0.  0.
        -11    1    5    5    0    0  0.13190010010E+03  0.23658340464E+03  0.10099709344E+04  0.10456627717E+04  0.00000000000E+00 0.  1.
         12    1    5    5    0    0  0.13966340995E+03  0.13469140270E+03  0.64746186650E+03  0.67591013501E+03  0.00000000000E+00 0. -1.
        -13    1    3    3    0    0  0.19296902537E+03 -0.19040677284E+02 -0.14783267283E+03  0.24383209653E+03  0.00000000000E+00 0.  1.
         14    1    3    3    0    0  0.77657310642E+02 -0.27943273500E+02 -0.12162177089E+02  0.83423036276E+02  0.00000000000E+00 0. -1.
          5    1    4    4  501    0 -0.20416939454E+03 -0.12402153893E+03 -0.85857403961E+01  0.23908636248E+03  0.47000000000E+01 0.  1.
         -5    1    4    4    0  501 -0.34427967596E+03 -0.11682153578E+03 -0.14780063049E+03  0.39248297144E+03  0.47000000000E+01 0.  1.
          1    1    1    2  502    0 -0.39700309620E+02 -0.60852949374E+02 -0.25538968774E+04  0.25549302253E+04  0.00000000000E+00 0. -1.
          1    1    1    2  503    0  0.45959534053E+02 -0.22594832471E+02  0.10551945365E+04  0.10564366120E+04  0.00000000000E+00 0. -1.
<mgrwt>
<rscale>  0 0.60999842E+02</rscale>
<asrwt>0</asrwt>
<pdfrwt beam="1">  1        2 0.45103776E+00 0.51213331E+02</pdfrwt>
<pdfrwt beam="2">  1        2 0.47422169E+00 0.72656488E+02</pdfrwt>
<totfact> 0.10677822E+00</totfact>
</mgrwt>
</event>
<event>
13    1  0.1595792E-008  0.1577437E+03  0.7546771E-02  0.1244666E+00
          2   -1    0    0  503    0  0.00000000000E+00  0.00000000000E+00  0.21204663924E+04  0.21204663924E+04  0.00000000000E+00 0. -1.
          2   -1    0    0  502    0 -0.00000000000E+00 -0.00000000000E+00 -0.19751514611E+04  0.19751514611E+04  0.00000000000E+00 0. -1.
         24    2    1    2    0    0  0.95920175115E+02 -0.15204808540E+03  0.12148014244E+03  0.23042817964E+03  0.77591369991E+02 0.  0.
         25    2    1    2    0    0 -0.10532123546E+03 -0.27170227385E+03  0.11726177624E+03  0.33806768779E+03  0.12499899644E+03 0.  0.
         24    2    1    2    0    0 -0.22146497407E+02  0.18782449129E+03  0.56646704290E+03  0.60273752375E+03  0.81480703049E+02 0.  0.
        -11    1    3    3    0    0  0.10778810262E+03 -0.14783082854E+03  0.11642192657E+03  0.21685546781E+03  0.00000000000E+00 0.  1.
         12    1    3    3    0    0 -0.11867927503E+02 -0.42172568611E+01  0.50582158719E+01  0.13572711832E+02  0.00000000000E+00 0. -1.
        -13    1    5    5    0    0  0.30497456597E+02  0.52739568364E+02  0.16309168436E+03  0.17409897886E+03  0.00000000000E+00 0.  1.
         14    1    5    5    0    0 -0.52643954004E+02  0.13508492292E+03  0.40337535853E+03  0.42863854489E+03  0.00000000000E+00 0. -1.
          5    1    4    4  501    0 -0.68068831002E+01 -0.12329427276E+02 -0.22818681007E+02  0.27223714614E+02  0.47000000000E+01 0.  1.
         -5    1    4    4    0  501 -0.98514352356E+02 -0.25937284657E+03  0.14008045725E+03  0.31084397318E+03  0.47000000000E+01 0.  1.
          1    1    1    2  502    0 -0.17087727134E+02  0.88213941166E+02 -0.17856644021E+04  0.17879236691E+04  0.00000000000E+00 0. -1.
          1    1    1    2  503    0  0.48635284883E+02  0.14771192679E+03  0.11257703718E+04  0.11364607931E+04  0.00000000000E+00 0. -1.
<mgrwt>
<rscale>  0 0.11905402E+03</rscale>
<asrwt>0</asrwt>
<pdfrwt beam="1">  1        2 0.31183329E+00 0.15774373E+03</pdfrwt>
<pdfrwt beam="2">  1        2 0.29046345E+00 0.89853714E+02</pdfrwt>
<totfact> 0.11319512E+01</totfact>
</mgrwt>
</event>
<event>
13    1  0.1595792E-008  0.1325665E+03  0.7546771E-02  0.1276737E+00
          2   -1    0    0  503    0  0.00000000000E+00  0.00000000000E+00  0.12259551640E+04  0.12259551640E+04  0.00000000000E+00 0. -1.
          2   -1    0    0  502    0 -0.00000000000E+00 -0.00000000000E+00 -0.83671575184E+03  0.83671575184E+03  0.00000000000E+00 0. -1.
         24    2    1    2    0    0 -0.38743190488E+02  0.98398852719E+02 -0.38913908438E+03  0.40977233181E+03  0.72806372658E+02 0.  0.
         25    2    1    2    0    0  0.13561932866E+03  0.92113400947E+02  0.33513784137E+02  0.20886525738E+03  0.12499616423E+03 0.  0.
         24    2    1    2    0    0 -0.10134408114E+03 -0.82569640622E+02  0.19872764761E+03  0.25110194194E+03  0.80443389953E+02 0.  0.
        -13    1    3    3    0    0  0.11199179728E+02  0.66731713991E+02 -0.17526324539E+03  0.18787162762E+03  0.00000000000E+00 0.  1.
         14    1    3    3    0    0 -0.49942370216E+02  0.31667138728E+02 -0.21387583899E+03  0.22190070419E+03  0.00000000000E+00 0. -1.
        -13    1    5    5    0    0 -0.41330277612E+02  0.10267887874E+02  0.47785593980E+02  0.64008471009E+02  0.00000000000E+00 0.  1.
         14    1    5    5    0    0 -0.60013803527E+02 -0.92837528496E+02  0.15094205363E+03  0.18709347093E+03  0.00000000000E+00 0. -1.
          5    1    4    4  501    0  0.46973153426E+02  0.10418386432E+03  0.33825954569E+02  0.11927715594E+03  0.47000000000E+01 0. -1.
         -5    1    4    4    0  501  0.88646175232E+02 -0.12070463369E+02 -0.31217043177E+00  0.89588101440E+02  0.47000000000E+01 0. -1.
          1    1    1    2  502    0 -0.77957776798E+02 -0.35453450630E+01 -0.31349868406E+03  0.32306564246E+03  0.00000000000E+00 0. -1.
          1    1    1    2  503    0  0.82425719766E+02 -0.10439726798E+03  0.85963574885E+03  0.86986574225E+03  0.00000000000E+00 0. -1.
<mgrwt>
<rscale>  0 0.10171172E+03</rscale>
<asrwt>0</asrwt>
<pdfrwt beam="1">  1        2 0.18028753E+00 0.13256655E+03</pdfrwt>
<pdfrwt beam="2">  1        2 0.12304643E+00 0.78038352E+02</pdfrwt>
<totfact> 0.12570507E+02</totfact>
</mgrwt>
</event>
<event>
13    1  0.1595792E-008  0.6691336E+02  0.7546771E-02  0.1402874E+00
         -3   -1    0    0    0  501 -0.00000000000E+00  0.00000000000E+00  0.89708336188E+03  0.89708336188E+03  0.00000000000E+00 0.  1.
          2   -1    0    0  503    0  0.00000000000E+00 -0.00000000000E+00 -0.14660965997E+04  0.14660965997E+04  0.00000000000E+00 0. -1.
         24    2    1    2    0    0 -0.30256363841E+02 -0.13016201483E+03 -0.12626113257E+02  0.15585131494E+03  0.79199848320E+02 0.  0.
         25    2    1    2    0    0 -0.24890544744E+02  0.26808659186E+03 -0.21649455127E+03  0.36740191193E+03  0.12499725683E+03 0.  0.
         24    2    1    2    0    0  0.36357769254E+02 -0.59544061016E+02 -0.62060067742E+03  0.62995983201E+03  0.82684983807E+02 0.  0.
        -11    1    5    5    0    0 -0.19982912123E+02  0.55182546269E+01 -0.85211106854E+02  0.87696639858E+02  0.00000000000E+00 0.  1.
         12    1    5    5    0    0  0.56340681377E+02 -0.65062315643E+02 -0.53538957056E+03  0.54226319215E+03  0.00000000000E+00 0. -1.
        -13    1    3    3    0    0 -0.35490414731E+02 -0.10960742155E+03 -0.39339488125E+02  0.12174133120E+03  0.00000000000E+00 0.  1.
         14    1    3    3    0    0  0.52340508901E+01 -0.20554593285E+02  0.26713374868E+02  0.34109983739E+02  0.00000000000E+00 0. -1.
          5    1    4    4  502    0  0.21062521997E+02  0.18438143674E+03 -0.83362971209E+02  0.20349844966E+03  0.47000000000E+01 0.  1.
         -5    1    4    4    0  502 -0.45953066741E+02  0.83705155120E+02 -0.13313158006E+03  0.16390346227E+03  0.47000000000E+01 0.  1.
          1    1    1    2  503    0 -0.34769154650E+02 -0.38257171065E+02 -0.46168170679E+03  0.46456700662E+03  0.00000000000E+00 0. -1.
         -4    1    1    2    0  501  0.53558293980E+02 -0.40123344940E+02  0.74238981093E+03  0.74539989605E+03  0.00000000000E+00 0.  1.
<mgrwt>
<rscale>  0 0.58814724E+02</rscale>
<asrwt>0</asrwt>
<pdfrwt beam="2">  1        2 0.21560244E+00 0.51696279E+02</pdfrwt>
<pdfrwt beam="1">  1       -3 0.13192403E+00 0.66913360E+02</pdfrwt>
<totfact> 0.51029100E+00</totfact>
</mgrwt>
</event>
<event>
13    1  0.1595792E-008  0.6374409E+02  0.7546771E-02  0.1392596E+00
          2   -1    0    0  502    0  0.00000000000E+00  0.00000000000E+00  0.13002843320E+04  0.13002843320E+04  0.00000000000E+00 0. -1.
          2   -1    0    0  503    0 -0.00000000000E+00 -0.00000000000E+00 -0.24414436223E+04  0.24414436223E+04  0.00000000000E+00 0. -1.
         24    2    1    2    0    0  0.21691995037E+02  0.12612792383E+01 -0.13355041735E+03  0.15842172168E+03  0.82398995459E+02 0.  0.
         25    2    1    2    0    0 -0.66670487297E+02  0.52697636736E+01 -0.20400472346E+03  0.24842458282E+03  0.12499648744E+03 0.  0.
         24    2    1    2    0    0 -0.55006193879E+02  0.24054658698E+01  0.56628714469E+03  0.57447304340E+03  0.79414606448E+02 0.  0.
        -11    1    3    3    0    0  0.28938193787E+02 -0.16115550380E+02 -0.13550389567E+03  0.13949349722E+03  0.00000000000E+00 0.  1.
         12    1    3    3    0    0 -0.72461987501E+01  0.17376829619E+02  0.19534783200E+01  0.18928224467E+02  0.00000000000E+00 0. -1.
        -13    1    5    5    0    0 -0.67663710412E+02 -0.18719547994E+02  0.36551813628E+03  0.37219928417E+03  0.00000000000E+00 0.  1.
         14    1    5    5    0    0  0.12657516533E+02  0.21125013864E+02  0.20076900841E+03  0.20227375923E+03  0.00000000000E+00 0. -1.
          5    1    4    4  501    0 -0.83498290091E+02  0.13521093418E+02 -0.61673652386E+02  0.10478794689E+03  0.47000000000E+01 0.  1.
         -5    1    4    4    0  501  0.16827802795E+02 -0.82513297444E+01 -0.14233107107E+03  0.14363663593E+03  0.47000000000E+01 0.  1.
          1    1    1    2  502    0  0.50175599972E+02  0.30816373031E+02  0.69351909218E+03  0.69601434676E+03  0.00000000000E+00 0. -1.
          1    1    1    2  503    0  0.49809086166E+02 -0.39752881812E+02 -0.20634103863E+04  0.20643942596E+04  0.00000000000E+00 0. -1.
<mgrwt>
<rscale>  0 0.61265493E+02</rscale>
<asrwt>0</asrwt>
<pdfrwt beam="1">  1        2 0.19121829E+00 0.58883272E+02</pdfrwt>
<pdfrwt beam="2">  1        2 0.35903582E+00 0.63744092E+02</pdfrwt>
<totfact> 0.19312645E+01</totfact>
</mgrwt>
</event>
<event>
13    1  0.1595792E-008  0.9874277E+02  0.7546771E-02  0.1487184E+00
          2   -1    0    0  502    0  0.00000000000E+00  0.00000000000E+00  0.18513312077E+04  0.18513312077E+04  0.00000000000E+00 0. -1.
          4   -1    0    0  503    0 -0.00000000000E+00 -0.00000000000E+00 -0.58966855893E+03  0.58966855893E+03  0.00000000000E+00 0. -1.
         24    2    1    2    0    0 -0.29547640513E+02 -0.15922859259E+02  0.28804213307E+01  0.87847387625E+02  0.81131166505E+02 0.  0.
         25    2    1    2    0    0  0.50855514380E+01  0.72202869922E+02  0.37699450219E+02  0.14928115087E+03  0.12499798479E+03 0.  0.
         24    2    1    2    0    0  0.10455840209E+03 -0.12337713978E+03  0.16141483160E+03  0.24181672981E+03  0.79159363863E+02 0.  0.
        -13    1    3    3    0    0  0.15142724745E+02  0.23629962754E+02 -0.52777412912E+00  0.28070550368E+02  0.00000000000E+00 0.  1.
         14    1    3    3    0    0 -0.44690365258E+02 -0.39552822013E+02  0.34081954598E+01  0.59776837257E+02  0.00000000000E+00 0. -1.
        -13    1    5    5    0    0  0.10610906154E+03 -0.13306630090E+03  0.15388741503E+03  0.22944958025E+03  0.00000000000E+00 0.  1.
         14    1    5    5    0    0 -0.15506594514E+01  0.96891611153E+01  0.75274165736E+01  0.12367149555E+02  0.00000000000E+00 0. -1.
          5    1    4    4  501    0 -0.12101158524E+02  0.10547117336E+03  0.32867225301E+02  0.11123376712E+03  0.47000000000E+01 0. -1.
         -5    1    4    4    0  501  0.17186709962E+02 -0.33268303440E+02  0.48322249179E+01  0.38047383757E+02  0.47000000000E+01 0. -1.
          1    1    1    2  502    0 -0.85255493359E+02  0.49090419149E+02  0.15090644511E+04  0.15122677957E+04  0.00000000000E+00 0. -1.
          3    1    1    2  503    0  0.51591803492E+01  0.18006709970E+02 -0.44939650545E+03  0.44978670263E+03  0.00000000000E+00 0. -1.
<mgrwt>
<rscale>  0 0.43006662E+02</rscale>
<asrwt>0</asrwt>
<pdfrwt beam="1">  1        2 0.27225459E+00 0.98742774E+02</pdfrwt>
<pdfrwt beam="2">  1        4 0.86715965E-01 0.18731224E+02</pdfrwt>
<totfact> 0.56186764E+00</totfact>
</mgrwt>
</event>
<event>
13    1  0.1595792E-008  0.1362385E+03  0.7546771E-02  0.1351082E+00
          2   -1    0    0  502    0  0.00000000000E+00  0.00000000000E+00  0.88227873504E+03  0.88227873504E+03  0.00000000000E+00 0. -1.
          4   -1    0    0  503    0 -0.00000000000E+00 -0.00000000000E+00 -0.74396989183E+03  0.74396989183E+03  0.00000000000E+00 0. -1.
         24    2    1    2    0    0 -0.71951098887E+02  0.48153910410E+02 -0.47893367081E+02  0.12731329412E+03  0.80119539000E+02 0.  0.
         25    2    1    2    0    0  0.26431516160E+03 -0.18473490431E+03 -0.35425915959E+03  0.49508712281E+03  0.12498886948E+03 0.  0.
         24    2    1    2    0    0 -0.12682899959E+03  0.14636466240E+02  0.10750096229E+03  0.18517557189E+03  0.80210437285E+02 0.  0.
        -11    1    5    5    0    0 -0.10063612212E+03  0.44762594897E+02  0.70703311210E+02  0.13088268485E+03  0.00000000000E+00 0.  1.
         12    1    5    5    0    0 -0.26192877472E+02 -0.30126128656E+02  0.36797651083E+02  0.54292887041E+02  0.00000000000E+00 0. -1.
        -11    1    3    3    0    0 -0.88481425440E+02  0.41479749915E+02 -0.30410003465E+02  0.10234403066E+03  0.00000000000E+00 0.  1.
         12    1    3    3    0    0  0.16530326553E+02  0.66741604952E+01 -0.17483363615E+02  0.24969263457E+02  0.00000000000E+00 0. -1.
          5    1    4    4  501    0  0.17121834059E+03 -0.58536369677E+02 -0.24183303650E+03  0.30207206801E+03  0.47000000000E+01 0.  1.
         -5    1    4    4    0  501  0.93096821014E+02 -0.12619853463E+03 -0.11242612309E+03  0.19301505480E+03  0.47000000000E+01 0.  1.
          1    1    1    2  502    0 -0.94614608608E+02  0.96234365305E+02  0.61648728028E+03  0.63108600363E+03  0.00000000000E+00 0. -1.
          3    1    1    2  503    0  0.29079545481E+02  0.25710162351E+02 -0.18352687270E+03  0.18758663443E+03  0.00000000000E+00 0. -1.
<mgrwt>
<rscale>  0 0.72719634E+02</rscale>
<asrwt>0</asrwt>
<pdfrwt beam="1">  1        2 0.12974687E+00 0.13623846E+03</pdfrwt>
<pdfrwt beam="2">  1        4 0.10940734E+00 0.38815363E+02</pdfrwt>
<totfact> 0.11544454E+01</totfact>
</mgrwt>
</event>
<event>
13    1  0.1595792E-008  0.3427785E+02  0.7546771E-02  0.1566278E+00
         -1   -1    0    0    0  501 -0.00000000000E+00  0.00000000000E+00  0.15268085926E+03  0.15268085926E+03  0.00000000000E+00 0.  1.
          2   -1    0    0  503    0  0.00000000000E+00 -0.00000000000E+00 -0.24873760043E+04  0.24873760043E+04  0.00000000000E+00 0. -1.
         24    2    1    2    0    0  0.90817001399E+02  0.17136543274E+02 -0.42885294152E+01  0.11919809424E+03  0.75155873538E+02 0.  0.
         25    2    1    2    0    0 -0.18455401466E+03  0.41382530474E+02 -0.41579311942E+03  0.47358391924E+03  0.12500044900E+03 0.  0.
         24    2    1    2    0    0  0.53415964661E+02 -0.12676073283E+02 -0.10990206275E+03  0.14662049846E+03  0.80032237612E+02 0.  0.
        -11    1    3    3    0    0  0.96835932558E+02  0.32839340218E+02 -0.49011728573E+01  0.10237012062E+03  0.00000000000E+00 0.  1.
         12    1    3    3    0    0 -0.60189311587E+01 -0.15702796944E+02  0.61264344211E+00  0.16827973620E+02  0.00000000000E+00 0. -1.
        -13    1    5    5    0    0  0.38485799216E+02  0.29837169132E+02 -0.75871650021E+02  0.90154981449E+02  0.00000000000E+00 0.  1.
         14    1    5    5    0    0  0.14930165445E+02 -0.42513242415E+02 -0.34030412733E+02  0.56465517013E+02  0.00000000000E+00 0. -1.
          5    1    4    4  502    0 -0.71544283073E+02  0.16149966628E+02 -0.47549171556E+02  0.87535247633E+02  0.47000000000E+01 0. -1.
         -5    1    4    4    0  502 -0.11300973159E+03  0.25232563846E+02 -0.36824394787E+03  0.38604867161E+03  0.47000000000E+01 0. -1.
          1    1    1    2  503    0  0.11402514562E+02 -0.32289768047E+02 -0.18471910437E+04  0.18475084298E+04  0.00000000000E+00 0. -1.
         -2    1    1    2    0  501  0.28918534037E+02 -0.13553232418E+02  0.42479610219E+02  0.53145921802E+02  0.00000000000E+00 0.  1.
<mgrwt>
<rscale>  0 0.33086730E+02</rscale>
<asrwt>0</asrwt>
<pdfrwt beam="2">  1        2 0.36579060E+00 0.34277854E+02</pdfrwt>
<pdfrwt beam="1">  1       -1 0.22453067E-01 0.31936996E+02</pdfrwt>
<totfact> 0.10907612E+02</totfact>
</mgrwt>
</event>
<event>
13    1  0.1595792E-008  0.8493630E+02  0.7546771E-02  0.1354944E+00
          2   -1    0    0  502    0  0.00000000000E+00  0.00000000000E+00  0.86991033374E+03  0.86991033374E+03  0.00000000000E+00 0. -1.
          2   -1    0    0  503    0 -0.00000000000E+00 -0.00000000000E+00 -0.33454345687E+04  0.33454345687E+04  0.00000000000E+00 0. -1.
         24    2    1    2    0    0 -0.49104442518E+02 -0.15401698277E+03 -0.21804247563E+03  0.28308358321E+03  0.80382315522E+02 0.  0.
         25    2    1    2    0    0  0.53679027298E+02  0.14346245277E+03  0.74317210564E+02  0.21120867826E+03  0.12499257841E+03 0.  0.
         24    2    1    2    0    0  0.34491893252E+02  0.54206510478E+02  0.99573962009E+02  0.14300529767E+03  0.80046891095E+02 0.  0.
        -13    1    5    5    0    0  0.54852253133E+02  0.14737001233E+02  0.67533323080E+02  0.88242272213E+02  0.00000000000E+00 0.  1.
         14    1    5    5    0    0 -0.20360359881E+02  0.39469509246E+02  0.32040638929E+02  0.54763025460E+02  0.00000000000E+00 0. -1.
        -13    1    3    3    0    0 -0.22679102400E+02 -0.72330810974E+02 -0.40666816845E+02  0.86022542942E+02  0.00000000000E+00 0.  1.
         14    1    3    3    0    0 -0.26425340118E+02 -0.81686171800E+02 -0.17737565879E+03  0.19706104027E+03  0.00000000000E+00 0. -1.
          5    1    4    4  501    0  0.39224990261E+02  0.23295579560E+02  0.77487773026E+02  0.90042927854E+02  0.47000000000E+01 0. -1.
         -5    1    4    4    0  501  0.14454037037E+02  0.12016687321E+03 -0.31705624623E+01  0.12116575040E+03  0.47000000000E+01 0. -1.
          1    1    1    2  502    0 -0.89930848424E+02 -0.75947929413E+02  0.56698969732E+03  0.57907940936E+03  0.00000000000E+00 0. -1.
          1    1    1    2  503    0  0.50864370392E+02  0.32295948937E+02 -0.29983626292E+04  0.29989679339E+04  0.00000000000E+00 0. -1.
<mgrwt>
<rscale>  0 0.71536828E+02</rscale>
<asrwt>0</asrwt>
<pdfrwt beam="1">  1        2 0.12792799E+00 0.84936299E+02</pdfrwt>
<pdfrwt beam="2">  1        2 0.49197567E+00 0.60251245E+02</pdfrwt>
<totfact> 0.11252327E+01</totfact>
</mgrwt>
</event>
<event>
13    1  0.1595792E-008  0.1023627E+03  0.7546771E-02  0.1367450E+00
          2   -1    0    0  503    0  0.00000000000E+00  0.00000000000E+00  0.20409481144E+04  0.20409481144E+04  0.00000000000E+00 0. -1.
          2   -1    0    0  502    0 -0.00000000000E+00 -0.00000000000E+00 -0.22859539863E+04  0.22859539863E+04  0.00000000000E+00 0. -1.
         24    2    1    2    0    0  0.12553134665E+02  0.70322124174E+02 -0.26422343023E+03  0.28463193932E+03  0.78093133273E+02 0.  0.
         25    2    1    2    0    0 -0.60510315701E+02 -0.14426645047E+00 -0.58230644692E+03  0.59863725581E+03  0.12499698714E+03 0.  0.
         24    2    1    2    0    0  0.64746992101E+02 -0.16572860803E+03  0.10434137779E+04  0.10613649513E+04  0.78263040075E+02 0.  0.
        -13    1    5    5    0    0 -0.59383060099E+01 -0.61394519422E+02  0.22484641488E+03  0.23315329888E+03  0.00000000000E+00 0.  1.
         14    1    5    5    0    0  0.70685298111E+02 -0.10433408861E+03  0.81856736299E+03  0.82821165240E+03  0.00000000000E+00 0. -1.
        -13    1    3    3    0    0  0.64757848186E+01  0.66480675179E+02 -0.10003138030E+03  0.12028255487E+03  0.00000000000E+00 0.  1.
         14    1    3    3    0    0  0.60773498467E+01  0.38414489957E+01 -0.16419204993E+03  0.16434938445E+03  0.00000000000E+00 0. -1.
          5    1    4    4  501    0 -0.19042100479E+02 -0.23526483927E+02 -0.51582481679E+03  0.51673342126E+03  0.47000000000E+01 0. -1.
         -5    1    4    4    0  501 -0.41468215222E+02  0.23382217476E+02 -0.66481630135E+02  0.81903834545E+02  0.47000000000E+01 0. -1.
          1    1    1    2  502    0 -0.44920245963E+02 -0.29193285233E+01 -0.14090159376E+04  0.14097348203E+04  0.00000000000E+00 0. -1.
          1    1    1    2  503    0  0.28130434897E+02  0.98470078829E+02  0.96712616504E+03  0.97253313408E+03  0.00000000000E+00 0. -1.
<mgrwt>
<rscale>  0 0.67881215E+02</rscale>
<asrwt>0</asrwt>
<pdfrwt beam="1">  1        2 0.30013943E+00 0.10236273E+03</pdfrwt>
<pdfrwt beam="2">  1        2 0.33616970E+00 0.45015008E+02</pdfrwt>
<totfact> 0.10009878E+01</totfact>
</mgrwt>
</event>
<event>
13    1  0.1595792E-008  0.8968373E+02  0.7546771E-02  0.1337929E+00
          2   -1    0    0  503    0  0.00000000000E+00  0.00000000000E+00  0.22256847478E+04  0.22256847478E+04  0.00000000000E+00 0. -1.
         -3   -1    0    0    0  501 -0.00000000000E+00 -0.00000000000E+00 -0.58951656216E+03  0.58951656216E+03  0.00000000000E+00 0.  1.
         24    2    1    2    0    0  0.57090884841E+02  0.65560334678E+02 -0.24343807457E+03  0.27072812262E+03  0.80461752465E+02 0.  0.
         25    2    1    2    0    0 -0.15130045181E+02 -0.52984616694E+02 -0.35009144061E+01  0.13665554995E+03  0.12500478014E+03 0.  0.
         24    2    1    2    0    0 -0.68147968150E+02 -0.14561202908E+02  0.22185503993E+03  0.24468576673E+03  0.76126812014E+02 0.  0.
        -11    1    5    5    0    0 -0.76085658479E+02 -0.10860366701E+02  0.12030963137E+03  0.14276337903E+03  0.00000000000E+00 0.  1.
         12    1    5    5    0    0  0.79376903291E+01 -0.37008362063E+01  0.10154540856E+03  0.10192238771E+03  0.00000000000E+00 0. -1.
        -13    1    3    3    0    0  0.14226522816E+02  0.73382021463E+02 -0.15994263499E+03  0.17654733505E+03  0.00000000000E+00 0.  1.
         14    1    3    3    0    0  0.42864362026E+02 -0.78216867848E+01 -0.83495439583E+02  0.94180787569E+02  0.00000000000E+00 0. -1.
          5    1    4    4  502    0 -0.12040770275E+02  0.29083330159E+02  0.33718770385E+02  0.46366644457E+02  0.47000000000E+01 0.  1.
         -5    1    4    4    0  502 -0.30892749060E+01 -0.82067946853E+02 -0.37219684791E+02  0.90288905498E+02  0.47000000000E+01 0.  1.
          1    1    1    2  503    0  0.86142238459E+02 -0.25676283703E+02  0.19067713770E+04  0.19088889022E+04  0.00000000000E+00 0. -1.
         -4    1    1    2    0  501 -0.59955109970E+02  0.27661768626E+02 -0.24551924232E+03  0.25424296844E+03  0.00000000000E+00 0.  1.
<mgrwt>
<rscale>  0 0.76952579E+02</rscale>
<asrwt>0</asrwt>
<pdfrwt beam="1">  1        2 0.32730658E+00 0.89683727E+02</pdfrwt>
<pdfrwt beam="2">  1       -3 0.86693613E-01 0.66028696E+02</pdfrwt>
<totfact> 0.54305987E+00</totfact>
</mgrwt>
</event>
<event>
13    1  0.1595792E-008  0.3280231E+02  0.7546771E-02  0.1574445E+00
          2   -1    0    0  502    0  0.00000000000E+00  0.00000000000E+00  0.28080554679E+04  0.28080554679E+04  0.00000000000E+00 0. -1.
          2   -1    0    0  503    0 -0.00000000000E+00 -0.00000000000E+00 -0.71287338982E+03  0.71287338982E+03  0.00000000000E+00 0. -1.
         24    2    1    2    0    0  0.94782297762E+01  0.85758863135E+02 -0.38721158039E+03  0.40435801259E+03  0.78282660388E+02 0.  0.
         25    2    1    2    0    0 -0.10511265181E+03  0.20777018438E+02  0.27220004390E+03  0.31811552263E+03  0.12499707105E+03 0.  0.
         24    2    1    2    0    0  0.10502913213E+03 -0.97951113197E+02  0.16747573470E+04  0.16827455962E+04  0.78708518528E+02 0.  0.
        -11    1    3    3    0    0  0.28311022469E+02  0.72743789658E+00 -0.73036452194E+02  0.78334963511E+02  0.00000000000E+00 0.  1.
         12    1    3    3    0    0 -0.18832792692E+02  0.85031425238E+02 -0.31417512819E+03  0.32602304908E+03  0.00000000000E+00 0. -1.
        -13    1    5    5    0    0 -0.10551561969E+02 -0.17350879964E+02  0.13021189050E+03  0.13178590563E+03  0.00000000000E+00 0.  1.
         14    1    5    5    0    0  0.11558069410E+03 -0.80600233233E+02  0.15445454565E+04  0.15509596906E+04  0.00000000000E+00 0. -1.
          5    1    4    4  501    0 -0.92016285244E+02  0.60727076676E+02  0.13401348741E+03  0.17359861578E+03  0.47000000000E+01 0.  1.
         -5    1    4    4    0  501 -0.13096366562E+02 -0.39950058238E+02  0.13818655649E+03  0.14451690685E+03  0.47000000000E+01 0.  1.
          1    1    1    2  502    0  0.14478341241E+02 -0.29459324911E+02  0.82437884828E+03  0.82503209615E+03  0.00000000000E+00 0. -1.
          1    1    1    2  503    0 -0.23873051344E+02  0.20874556534E+02 -0.28894258076E+03  0.29067763014E+03  0.00000000000E+00 0. -1.
<mgrwt>
<rscale>  0 0.32252698E+02</rscale>
<asrwt>0</asrwt>
<pdfrwt beam="1">  1        2 0.41294933E+00 0.32802310E+02</pdfrwt>
<pdfrwt beam="2">  1        2 0.10483432E+00 0.31712296E+02</pdfrwt>
<totfact> 0.31173891E+01</totfact>
</mgrwt>
</event>
<event>
13    1  0.1595792E-008  0.1654527E+03  0.7546771E-02  0.1434454E+00
          2   -1    0    0  502    0  0.00000000000E+00  0.00000000000E+00  0.48908383124E+02  0.48908383124E+02  0.00000000000E+00 0. -1.
          2   -1    0    0  503    0 -0.00000000000E+00 -0.00000000000E+00 -0.45751406746E+04  0.45751406746E+04  0.00000000000E+00 0. -1.
         24    2    1    2    0    0  0.13355974201E+02 -0.11808603522E+03 -0.90846318995E+03  0.91970143026E+03  0.80141497144E+02 0.  0.
         25    2    1    2    0    0  0.11181047391E+03 -0.19617714077E+02 -0.64026717526E+03  0.66215829540E+03  0.12500046268E+03 0.  0.
         24    2    1    2    0    0  0.27116440569E+01 -0.11526898509E+02 -0.35997554230E+02  0.89747100934E+02  0.81354138264E+02 0.  0.
        -11    1    5    5    0    0  0.18399335878E+02 -0.34032017414E+02 -0.46395781074E+02  0.60409289612E+02  0.00000000000E+00 0.  1.
         12    1    5    5    0    0 -0.15687691821E+02  0.22505118906E+02  0.10398226843E+02  0.29337811321E+02  0.00000000000E+00 0. -1.
        -13    1    3    3    0    0  0.17722816723E+02 -0.10517743672E+03 -0.51139652416E+03  0.52240099191E+03  0.00000000000E+00 0.  1.
         14    1    3    3    0    0 -0.43668425222E+01 -0.12908598501E+02 -0.39706666579E+03  0.39730043835E+03  0.00000000000E+00 0. -1.
          5    1    4    4  501    0 -0.39134993122E+01 -0.41891216604E+02 -0.27721920218E+03  0.28043317486E+03  0.47000000000E+01 0. -1.
         -5    1    4    4    0  501  0.11572397323E+03  0.22273502527E+02 -0.36304797308E+03  0.38172512054E+03  0.47000000000E+01 0. -1.
          1    1    1    2  502    0 -0.16359322709E+02 -0.10194228544E+01 -0.24709111785E+02  0.29651422692E+02  0.00000000000E+00 0. -1.
          1    1    1    2  503    0 -0.11151876946E+03  0.15025007066E+03 -0.29167952602E+04  0.29227908084E+04  0.00000000000E+00 0. -1.
<mgrwt>
<rscale>  0 0.52076331E+02</rscale>
<asrwt>0</asrwt>
<pdfrwt beam="1">  1        2 0.71924116E-02 0.16391054E+02</pdfrwt>
<pdfrwt beam="2">  1        2 0.67281459E+00 0.16545270E+03</pdfrwt>
<totfact> 0.29104769E+01</totfact>
</mgrwt>
</event>
<event>
13    1  0.1595792E-008  0.1213450E+03  0.7546771E-02  0.1412767E+00
          2   -1    0    0  503    0  0.00000000000E+00  0.00000000000E+00  0.94057598152E+03  0.94057598152E+03  0.00000000000E+00 0. -1.
          2   -1    0    0  502    0 -0.00000000000E+00 -0.00000000000E+00 -0.18659503292E+04  0.18659503292E+04  0.00000000000E+00 0. -1.
         24    2    1    2    0    0 -0.16616094762E+03 -0.36728990769E+02 -0.95512257695E+03  0.97352153213E+03  0.80787110690E+02 0.  0.
         25    2    1    2    0    0  0.59416971069E+02  0.93018276851E+02  0.18849576986E+03  0.25167227709E+03  0.12500201408E+03 0.  0.
         24    2    1    2    0    0 -0.21963723631E+02  0.33967068963E+01  0.14464486773E+03  0.16554017072E+03  0.77378728267E+02 0.  0.
        -11    1    3    3    0    0 -0.62209220694E+02 -0.17993458521E+02 -0.18120752043E+03  0.19243159083E+03  0.00000000000E+00 0.  1.
         12    1    3    3    0    0 -0.10395172693E+03 -0.18735532248E+02 -0.77391505652E+03  0.78108994131E+03  0.00000000000E+00 0. -1.
        -11    1    5    5    0    0  0.24337336240E+02 -0.80844749412E+01  0.87083785243E+02  0.90781332456E+02  0.00000000000E+00 0.  1.
         12    1    5    5    0    0 -0.46301059871E+02  0.11481181837E+02  0.57561082486E+02  0.74758838264E+02  0.00000000000E+00 0. -1.
          5    1    4    4  501    0 -0.35139856290E+02  0.24529028955E+01  0.35241672286E+02  0.50048893076E+02  0.47000000000E+01 0.  1.
         -5    1    4    4    0  501  0.94556827358E+02  0.90565373956E+02  0.15325409757E+03  0.20162338402E+03  0.47000000000E+01 0.  1.
          1    1    1    2  502    0  0.10277643197E+03 -0.64545856226E+02 -0.85499174568E+03  0.86356241680E+03  0.00000000000E+00 0. -1.
          1    1    1    2  503    0  0.25931268217E+02  0.48598632473E+01  0.55159933734E+03  0.55222991399E+03  0.00000000000E+00 0. -1.
<mgrwt>
<rscale>  0 0.56581025E+02</rscale>
<asrwt>0</asrwt>
<pdfrwt beam="1">  1        2 0.13832000E+00 0.26382739E+02</pdfrwt>
<pdfrwt beam="2">  1        2 0.27440446E+00 0.12134496E+03</pdfrwt>
<totfact> 0.54934425E+01</totfact>
</mgrwt>
</event>
<event>
13    1  0.1595792E-008  0.9201804E+02  0.7546771E-02  0.1364021E+00
          2   -1    0    0  503    0  0.00000000000E+00  0.00000000000E+00  0.18879830285E+04  0.18879830285E+04  0.00000000000E+00 0. -1.
         -3   -1    0    0    0  501 -0.00000000000E+00 -0.00000000000E+00 -0.21338400561E+03  0.21338400561E+03  0.00000000000E+00 0.  1.
         24    2    1    2    0    0 -0.74497495187E+01  0.20966978447E+02 -0.37709450724E+01  0.85516156525E+02  0.82484423057E+02 0.  0.
         25    2    1    2    0    0 -0.16349922991E+02 -0.50027253485E+02  0.30706421189E+03  0.33568315670E+03  0.12499882158E+03 0.  0.
         24    2    1    2    0    0  0.66116946377E+02  0.32553693365E+02  0.51919759379E+03  0.53070664168E+03  0.81561048113E+02 0.  0.
        -11    1    3    3    0    0  0.19356057459E+02 -0.16769163865E+02  0.20907676610E+02  0.33060440988E+02  0.00000000000E+00 0.  1.
         12    1    3    3    0    0 -0.26805806978E+02  0.37736142313E+02 -0.24678621683E+02  0.52455715537E+02  0.00000000000E+00 0. -1.
        -11    1    5    5    0    0 -0.16798067424E+02  0.19165825597E+02  0.14231436625E+03  0.14457829291E+03  0.00000000000E+00 0.  1.
         12    1    5    5    0    0  0.82915013801E+02  0.13387867768E+02  0.37688322754E+03  0.38612834876E+03  0.00000000000E+00 0. -1.
          5    1    4    4  502    0 -0.15147972921E+01 -0.33087448178E+01  0.27888467753E+03  0.27894801624E+03  0.47000000000E+01 0.  1.
         -5    1    4    4    0  502 -0.14835125699E+02 -0.46718508667E+02  0.28179534361E+02  0.56735140464E+02  0.47000000000E+01 0.  1.
          1    1    1    2  503    0  0.48552999930E+02 -0.17251161092E+02  0.98584410648E+03  0.98718974805E+03  0.00000000000E+00 0. -1.
         -4    1    1    2    0  501 -0.90870273797E+02  0.13757742764E+02 -0.13373594420E+03  0.16227133116E+03  0.00000000000E+00 0.  1.
<mgrwt>
<rscale>  0 0.68857694E+02</rscale>
<asrwt>0</asrwt>
<pdfrwt beam="1">  1        2 0.27764455E+00 0.51526657E+02</pdfrwt>
<pdfrwt beam="2">  1       -3 0.31380002E-01 0.92018042E+02</pdfrwt>
<totfact> 0.64338196E+01</totfact>
</mgrwt>
</event>
<event>
13    1  0.1595792E-008  0.5451859E+02  0.7546771E-02  0.1479481E+00
         -1   -1    0    0    0  501 -0.00000000000E+00  0.00000000000E+00  0.36436710335E+03  0.36436710335E+03  0.00000000000E+00 0.  1.
          2   -1    0    0  503    0  0.00000000000E+00 -0.00000000000E+00 -0.20438420643E+04  0.20438420643E+04  0.00000000000E+00 0. -1.
         24    2    1    2    0    0 -0.44573826968E+03 -0.27789943245E+03 -0.17058053058E+03  0.55794899026E+03  0.79364089513E+02 0.  0.
         25    2    1    2    0    0  0.49967388408E+03  0.33130436244E+03 -0.62416857040E+03  0.87444121412E+03  0.12499784670E+03 0.  0.
         24    2    1    2    0    0 -0.28878905961E+02 -0.49249067018E+02 -0.13720697491E+03  0.16933714072E+03  0.81177900008E+02 0.  0.
        -11    1    3    3    0    0 -0.29195180196E+03 -0.20878741806E+03 -0.14634217786E+03  0.38761330425E+03  0.00000000000E+00 0.  1.
         12    1    3    3    0    0 -0.15378646772E+03 -0.69112014389E+02 -0.24238352725E+02  0.17033568602E+03  0.00000000000E+00 0. -1.
        -11    1    5    5    0    0 -0.21788445857E+02  0.19762223780E+02 -0.33707347007E+02  0.44737759263E+02  0.00000000000E+00 0.  1.
         12    1    5    5    0    0 -0.70904601039E+01 -0.69011290798E+02 -0.10349962791E+03  0.12459938145E+03  0.00000000000E+00 0. -1.
          5    1    4    4  502    0  0.16118306270E+03  0.87940024677E+02 -0.11645037311E+03  0.21747691151E+03  0.47000000000E+01 0.  1.
         -5    1    4    4    0  502  0.33849082139E+03  0.24336433776E+03 -0.50771819728E+03  0.65696430261E+03  0.47000000000E+01 0.  1.
          1    1    1    2  503    0  0.26347033307E+02 -0.24257752186E+02 -0.75036009038E+03  0.75121426367E+03  0.00000000000E+00 0. -1.
         -2    1    1    2    0  501 -0.51403741749E+02  0.20101889221E+02  0.28412053227E+01  0.55267558872E+02  0.00000000000E+00 0.  1.
<mgrwt>
<rscale>  0 0.44187100E+02</rscale>
<asrwt>0</asrwt>
<pdfrwt beam="2">  1        2 0.30056502E+00 0.35813471E+02</pdfrwt>
<pdfrwt beam="1">  1       -1 0.53583396E-01 0.54518585E+02</pdfrwt>
<totfact> 0.41354729E+01</totfact>
</mgrwt>
</event>
<event>
13    1  0.1595792E-008  0.6768224E+02  0.7546771E-02  0.1462239E+00
          2   -1    0    0  502    0  0.00000000000E+00  0.00000000000E+00  0.17646301022E+04  0.17646301022E+04  0.00000000000E+00 0. -1.
          2   -1    0    0  503    0 -0.00000000000E+00 -0.00000000000E+00 -0.22266281929E+04  0.22266281929E+04  0.00000000000E+00 0. -1.
         24    2    1    2    0    0 -0.11574566089E+03 -0.22068440378E+02  0.33067938805E+02  0.15132523181E+03  0.89004287143E+02 0.  0.
         25    2    1    2    0    0  0.10416006731E+03 -0.21305199661E+03  0.40554178100E+03  0.48613704890E+03  0.12499848518E+03 0.  0.
         24    2    1    2    0    0  0.35678917588E+02  0.18045390180E+03  0.13799206169E+03  0.24344204294E+03  0.79910095398E+02 0.  0.
        -13    1    3    3    0    0 -0.18748343958E+01 -0.32370501965E+02  0.45073356056E+00  0.32427882481E+02  0.00000000000E+00 0.  1.
         14    1    3    3    0    0 -0.11387082649E+03  0.10302061587E+02  0.32617205245E+02  0.11889734933E+03  0.00000000000E+00 0. -1.
        -13    1    5    5    0    0  0.13574147196E+02 -0.22228715450E+01  0.21933527092E+02  0.25889732342E+02  0.00000000000E+00 0.  1.
         14    1    5    5    0    0  0.22104770392E+02  0.18267677335E+03  0.11605853460E+03  0.21755231060E+03  0.00000000000E+00 0. -1.
          5    1    4    4  501    0  0.12475495446E+03 -0.14137018662E+03  0.24616989467E+03  0.31011455201E+03  0.47000000000E+01 0.  1.
         -5    1    4    4    0  501 -0.20594887148E+02 -0.71681809988E+02  0.15937188633E+03  0.17602249689E+03  0.47000000000E+01 0.  1.
          1    1    1    2  502    0  0.29687022295E+02  0.13555301638E+02  0.10350675570E+04  0.10355819200E+04  0.00000000000E+00 0. -1.
          1    1    1    2  503    0 -0.53780346305E+02  0.41111233547E+02 -0.20736674291E+04  0.20747720515E+04  0.00000000000E+00 0. -1.
<mgrwt>
<rscale>  0 0.46998223E+02</rscale>
<asrwt>0</asrwt>
<pdfrwt beam="1">  1        2 0.25950443E+00 0.32635341E+02</pdfrwt>
<pdfrwt beam="2">  1        2 0.32744532E+00 0.67682240E+02</pdfrwt>
<totfact> 0.15409601E+01</totfact>
</mgrwt>
</event>
<event>
13    1  0.1595792E-008  0.1067719E+03  0.7546771E-02  0.1489270E+00
          4   -1    0    0  503    0 -0.00000000000E+00  0.00000000000E+00  0.11489637449E+04  0.11489637449E+04  0.00000000000E+00 0. -1.
          2   -1    0    0  502    0  0.00000000000E+00 -0.00000000000E+00 -0.48213003292E+04  0.48213003292E+04  0.00000000000E+00 0. -1.
         24    2    1    2    0    0 -0.61076244881E+02  0.12216502412E+03  0.24988470764E+02  0.16893878243E+03  0.96235584545E+02 0.  0.
         25    2    1    2    0    0  0.59791897850E+02  0.65990967225E+02 -0.16116415454E+03  0.22254994179E+03  0.12499885230E+03 0.  0.
         24    2    1    2    0    0  0.22108884309E+01 -0.81059602284E+02 -0.43209765062E+03  0.45083087141E+03  0.99822581601E+02 0.  0.
        -11    1    5    5    0    0  0.33240520614E+02 -0.75543262973E+02 -0.19641908416E+03  0.21305439074E+03  0.00000000000E+00 0.  1.
         12    1    5    5    0    0 -0.31029632183E+02 -0.55163393116E+01 -0.23567856645E+03  0.23777648067E+03  0.00000000000E+00 0. -1.
        -13    1    3    3    0    0 -0.74203886321E+02  0.12758974966E+03  0.34837101036E+02  0.15165416108E+03  0.00000000000E+00 0.  1.
         14    1    3    3    0    0  0.13127641439E+02 -0.54247255483E+01 -0.98486302728E+01  0.17284621352E+02  0.00000000000E+00 0. -1.
          5    1    4    4  501    0  0.90578192071E+02  0.76539273689E+02 -0.11053924082E+03  0.16218410236E+03  0.47000000000E+01 0.  1.
         -5    1    4    4    0  501 -0.30786294221E+02 -0.10548306464E+02 -0.50624913716E+02  0.60365839429E+02  0.47000000000E+01 0.  1.
          1    1    1    2  502    0  0.16076232605E+02 -0.10555998562E+03 -0.41152392973E+04  0.41166243246E+04  0.00000000000E+00 0. -1.
          3    1    1    2  503    0 -0.17002774004E+02 -0.15364034412E+01  0.10111760474E+04  0.10113201539E+04  0.00000000000E+00 0. -1.
<mgrwt>
<rscale>  0 0.42694445E+02</rscale>
<asrwt>0</asrwt>
<pdfrwt beam="2">  1        2 0.70901473E+00 0.10677193E+03</pdfrwt>
<pdfrwt beam="1">  1        4 0.16896526E+00 0.17072049E+02</pdfrwt>
<totfact> 0.19175190E-02</totfact>
</mgrwt>
</event>
<event>
13    1  0.1595792E-008  0.7197136E+02  0.7546771E-02  0.1501172E+00
          2   -1    0    0  502    0  0.00000000000E+00  0.00000000000E+00  0.14731154749E+04  0.14731154749E+04  0.00000000000E+00 0. -1.
          2   -1    0    0  503    0 -0.00000000000E+00 -0.00000000000E+00 -0.19309125148E+04  0.19309125148E+04  0.00000000000E+00 0. -1.
         24    2    1    2    0    0 -0.60751581362E+03 -0.32838754283E+03 -0.57909203732E+03  0.90482455879E+03  0.80287311666E+02 0.  0.
         25    2    1    2    0    0  0.43977120279E+03  0.59415680138E+03 -0.45296595646E+02  0.75106877281E+03  0.12502601520E+03 0.  0.
         24    2    1    2    0    0  0.25261552994E+03 -0.23029528233E+03  0.39800512259E+02  0.35341702346E+03  0.80430023404E+02 0.  0.
        -13    1    3    3    0    0 -0.10333159320E+03 -0.63324539621E+02 -0.64993962947E+02  0.13751956476E+03  0.00000000000E+00 0.  1.
         14    1    3    3    0    0 -0.50418422042E+03 -0.26506300321E+03 -0.51409807437E+03  0.76730499403E+03  0.00000000000E+00 0. -1.
        -13    1    5    5    0    0  0.78058450414E+02 -0.12233405896E+03  0.47062222770E+01  0.14519260377E+03  0.00000000000E+00 0.  1.
         14    1    5    5    0    0  0.17455707953E+03 -0.10796122338E+03  0.35094289982E+02  0.20822441969E+03  0.00000000000E+00 0. -1.
          5    1    4    4  501    0  0.11253987926E+03  0.25188412480E+03 -0.25574987033E+02  0.27710468547E+03  0.47000000000E+01 0. -1.
         -5    1    4    4    0  501  0.32723132354E+03  0.34227267658E+03 -0.19721608614E+02  0.47396408734E+03  0.47000000000E+01 0. -1.
          1    1    1    2  502    0 -0.15183167386E+02 -0.17707467967E+02  0.75853494010E+03  0.75889349605E+03  0.00000000000E+00 0. -1.
          1    1    1    2  503    0 -0.69687751727E+02 -0.17766508252E+02 -0.63174385924E+03  0.63582413862E+03  0.00000000000E+00 0. -1.
<mgrwt>
<rscale>  0 0.40972846E+02</rscale>
<asrwt>0</asrwt>
<pdfrwt beam="1">  1        2 0.21663463E+00 0.23325587E+02</pdfrwt>
<pdfrwt beam="2">  1        2 0.28395772E+00 0.71971356E+02</pdfrwt>
<totfact> 0.29627277E+01</totfact>
</mgrwt>
</event>
<event>
13    1  0.1595792E-008  0.1368208E+03  0.7546771E-02  0.1389706E+00
          2   -1    0    0  502    0  0.00000000000E+00  0.00000000000E+00  0.27440820724E+04  0.27440820724E+04  0.00000000000E+00 0. -1.
          2   -1    0    0  503    0 -0.00000000000E+00 -0.00000000000E+00 -0.22449221536E+04  0.22449221536E+04  0.00000000000E+00 0. -1.
         24    2    1    2    0    0 -0.41372626703E+03 -0.12419938353E+03 -0.96035227186E+02  0.44980904188E+03  0.80687659465E+02 0.  0.
         25    2    1    2    0    0  0.92630049794E+02 -0.31114470974E+03  0.32239106471E+03  0.47429422076E+03  0.12501061043E+03 0.  0.
         24    2    1    2    0    0  0.38452882387E+03  0.57256921814E+03  0.97445562659E+03  0.11988891742E+04  0.10987974241E+03 0.  0.
        -11    1    5    5    0    0  0.35076152887E+03  0.44822878676E+03  0.81002721354E+03  0.98999332426E+03  0.00000000000E+00 0.  1.
         12    1    5    5    0    0  0.33767294996E+02  0.12434043138E+03  0.16442841305E+03  0.20889584990E+03  0.00000000000E+00 0. -1.
        -13    1    3    3    0    0 -0.26418713973E+03 -0.82713794419E+02 -0.21544453898E+02  0.27766991209E+03  0.00000000000E+00 0.  1.
         14    1    3    3    0    0 -0.14953912730E+03 -0.41485589106E+02 -0.74490773288E+02  0.17213912979E+03  0.00000000000E+00 0. -1.
          5    1    4    4  501    0  0.98702045865E+02 -0.11544995066E+03  0.13617656015E+03  0.20405129380E+03  0.47000000000E+01 0. -1.
         -5    1    4    4    0  501 -0.60719960708E+01 -0.19569475907E+03  0.18621450456E+03  0.27024292696E+03  0.47000000000E+01 0. -1.
          1    1    1    2  502    0 -0.27590822318E+02 -0.52023785227E+01  0.10793744830E+04  0.10797395949E+04  0.00000000000E+00 0. -1.
          1    1    1    2  503    0 -0.35841784310E+02 -0.13202274635E+03 -0.17810260283E+04  0.17862721944E+04  0.00000000000E+00 0. -1.
<mgrwt>
<rscale>  0 0.61979976E+02</rscale>
<asrwt>0</asrwt>
<pdfrwt beam="1">  1        2 0.40354148E+00 0.28077005E+02</pdfrwt>
<pdfrwt beam="2">  1        2 0.33013561E+00 0.13682077E+03</pdfrwt>
<totfact> 0.50207126E+00</totfact>
</mgrwt>
</event>
<event>
13    1  0.1595792E-008  0.2032580E+03  0.7546771E-02  0.1270936E+00
         -3   -1    0    0    0  501 -0.00000000000E+00  0.00000000000E+00  0.81900395449E+03  0.81900395449E+03  0.00000000000E+00 0.  1.
          2   -1    0    0  503    0  0.00000000000E+00 -0.00000000000E+00 -0.11867116786E+04  0.11867116786E+04  0.00000000000E+00 0. -1.
         24    2    1    2    0    0 -0.27644031861E+02 -0.11426661903E+03  0.14871624706E+02  0.14388920228E+03  0.81620368716E+02 0.  0.
         25    2    1    2    0    0  0.14729984949E+03  0.31789800514E+03  0.29662604054E+03  0.47577118542E+03  0.12495929585E+03 0.  0.
         24    2    1    2    0    0 -0.14870499428E+03  0.46366425526E+02 -0.48582020958E+02  0.18151872506E+03  0.79534986303E+02 0.  0.
        -11    1    5    5    0    0  0.89966629694E+01 -0.22243780798E+01 -0.61838004852E+01  0.11141238300E+02  0.00000000000E+00 0.  1.
         12    1    5    5    0    0 -0.15770165725E+03  0.48590803606E+02 -0.42398220472E+02  0.17037748676E+03  0.00000000000E+00 0. -1.
        -13    1    3    3    0    0 -0.49706345490E+02 -0.60626012717E+02  0.30010352160E+02  0.83945550428E+02  0.00000000000E+00 0.  1.
         14    1    3    3    0    0  0.22062313630E+02 -0.53640606313E+02 -0.15138727455E+02  0.59943651851E+02  0.00000000000E+00 0. -1.
          5    1    4    4  502    0  0.16659234463E+03  0.26081356082E+03  0.26551106169E+03  0.40779276192E+03  0.47000000000E+01 0. -1.
         -5    1    4    4    0  502 -0.19292495145E+02  0.57084444323E+02  0.31114978853E+02  0.67978423501E+02  0.47000000000E+01 0. -1.
          1    1    1    2  503    0  0.38883522076E+02 -0.19708863077E+03 -0.90392928178E+03  0.92598272291E+03  0.00000000000E+00 0. -1.
         -4    1    1    2    0  501 -0.98343454211E+01 -0.52909180866E+02  0.27330591338E+03  0.27855379743E+03  0.00000000000E+00 0.  1.
<mgrwt>
<rscale>  0 0.10458683E+03</rscale>
<asrwt>0</asrwt>
<pdfrwt beam="2">  1        2 0.17451642E+00 0.20325796E+03</pdfrwt>
<pdfrwt beam="1">  1       -3 0.12044176E+00 0.53815386E+02</pdfrwt>
<totfact> 0.79824371E+00</totfact>
</mgrwt>
</event>
<event>
13    1  0.1595792E-008  0.1538922E+03  0.7546771E-02  0.1253971E+00
          2   -1    0    0  502    0  0.00000000000E+00  0.00000000000E+00  0.34417266381E+04  0.34417266381E+04  0.00000000000E+00 0. -1.
          2   -1    0    0  503    0 -0.00000000000E+00 -0.00000000000E+00 -0.25311388892E+04  0.25311388892E+04  0.00000000000E+00 0. -1.
         24    2    1    2    0    0 -0.89140279466E+01 -0.27351571381E+02 -0.47459919511E+02  0.97486922952E+02  0.80147912234E+02 0.  0.
         25    2    1    2    0    0  0.11174608965E+03  0.56084391394E+02  0.15817138489E+02  0.17750593140E+03  0.12500210518E+03 0.  0.
         24    2    1    2    0    0  0.26654870342E+00  0.59403288434E+02  0.39978569776E+02  0.10810641628E+03  0.80993144614E+02 0.  0.
        -11    1    5    5    0    0 -0.29515434978E+02  0.31486070802E+02  0.50024116593E+02  0.66067736433E+02  0.00000000000E+00 0.  1.
         12    1    5    5    0    0  0.29781983681E+02  0.27917217632E+02 -0.10045546818E+02  0.42038679846E+02  0.00000000000E+00 0. -1.
        -13    1    3    3    0    0  0.12918446687E+02 -0.45449104552E+02 -0.50270357634E+02  0.68989971924E+02  0.00000000000E+00 0.  1.
         14    1    3    3    0    0 -0.21832474634E+02  0.18097533171E+02  0.28104381223E+01  0.28496951029E+02  0.00000000000E+00 0. -1.
          5    1    4    4  501    0  0.50076639131E+02 -0.17069732592E+02  0.52731030018E+02  0.74844485997E+02  0.47000000000E+01 0.  1.
         -5    1    4    4    0  501  0.61669450520E+02  0.73154123986E+02 -0.36913891529E+02  0.10266144540E+03  0.47000000000E+01 0.  1.
          1    1    1    2  502    0 -0.45073346742E+02 -0.14876114590E+03  0.32433960402E+04  0.32471186241E+04  0.00000000000E+00 0. -1.
          1    1    1    2  503    0 -0.58025263665E+02  0.60625037452E+02 -0.23411440801E+04  0.23426476325E+04  0.00000000000E+00 0. -1.
<mgrwt>
<rscale>  0 0.11364160E+03</rscale>
<asrwt>0</asrwt>
<pdfrwt beam="1">  1        2 0.50613627E+00 0.15389220E+03</pdfrwt>
<pdfrwt beam="2">  1        2 0.37222631E+00 0.83918570E+02</pdfrwt>
<totfact> 0.12275570E+00</totfact>
</mgrwt>
</event>
<event>
13    1  0.1595792E-008  0.4819263E+02  0.7546771E-02  0.1548032E+00
          2   -1    0    0  503    0  0.00000000000E+00  0.00000000000E+00  0.26051920667E+04  0.26051920667E+04  0.00000000000E+00 0. -1.
          2   -1    0    0  502    0 -0.00000000000E+00 -0.00000000000E+00 -0.71827419133E+03  0.71827419133E+03  0.00000000000E+00 0. -1.
         24    2    1    2    0    0 -0.33967233471E+02 -0.29634242536E+02 -0.17946005381E+02  0.94206919997E+02  0.80752234556E+02 0.  0.
         25    2    1    2    0    0  0.99665800631E+01  0.36331876343E+02  0.36513347549E+03  0.38777208836E+03  0.12500159852E+03 0.  0.
         24    2    1    2    0    0  0.18971527604E+02 -0.54734177114E+02  0.12807424048E+04  0.12845236348E+04  0.79649933989E+02 0.  0.
        -11    1    5    5    0    0  0.41043229238E+02 -0.60169449950E+01  0.73407756454E+03  0.73524867974E+03  0.00000000000E+00 0.  1.
         12    1    5    5    0    0 -0.22071701634E+02 -0.48717232119E+02  0.54666484026E+03  0.54927495510E+03  0.00000000000E+00 0. -1.
        -13    1    3    3    0    0 -0.60707025999E+02 -0.23036755827E+02 -0.11994673700E+02  0.66029594288E+02  0.00000000000E+00 0.  1.
         14    1    3    3    0    0  0.26739792528E+02 -0.65974867091E+01 -0.59513316810E+01  0.28177325709E+02  0.00000000000E+00 0. -1.
          5    1    4    4  501    0 -0.54947268702E+02  0.54445837815E+01  0.11822285804E+03  0.13056638156E+03  0.47000000000E+01 0.  1.
         -5    1    4    4    0  501  0.64913848765E+02  0.30887292562E+02  0.24691061745E+03  0.25720570680E+03  0.47000000000E+01 0.  1.
          1    1    1    2  502    0  0.28761004714E+02  0.38673917178E+02 -0.64791337252E+03  0.64970347509E+03  0.00000000000E+00 0. -1.
          1    1    1    2  503    0 -0.23731878910E+02  0.93626261284E+01  0.90690137296E+03  0.90726013972E+03  0.00000000000E+00 0. -1.
<mgrwt>
<rscale>  0 0.35064072E+02</rscale>
<asrwt>0</asrwt>
<pdfrwt beam="1">  1        2 0.38311648E+00 0.25511975E+02</pdfrwt>
<pdfrwt beam="2">  1        2 0.10562856E+00 0.48192630E+02</pdfrwt>
<totfact> 0.39853912E+01</totfact>
</mgrwt>
</event>
<event>
13    1  0.1595792E-008  0.9101400E+02  0.7546771E-02  0.1402896E+00
          2   -1    0    0  503    0  0.00000000000E+00  0.00000000000E+00  0.80531037871E+03  0.80531037871E+03  0.00000000000E+00 0. -1.
          2   -1    0    0  502    0 -0.00000000000E+00 -0.00000000000E+00 -0.17635557326E+04  0.17635557326E+04  0.00000000000E+00 0. -1.
         24    2    1    2    0    0 -0.19670596552E+03  0.38393028176E+03 -0.57768426403E+03  0.72543635144E+03  0.80268879138E+02 0.  0.
         25    2    1    2    0    0 -0.34232332413E+02 -0.29003473215E+03 -0.33090745459E+02  0.31939511677E+03  0.12500497890E+03 0.  0.
         24    2    1    2    0    0  0.32386858683E+03 -0.17697052988E+03 -0.17329839548E+03  0.41615473676E+03  0.83324672652E+02 0.  0.
        -11    1    5    5    0    0  0.22350863622E+03 -0.97079800329E+02 -0.76344295023E+02  0.25536062633E+03  0.00000000000E+00 0.  1.
         12    1    5    5    0    0  0.10035995061E+03 -0.79890729551E+02 -0.96954100455E+02  0.16079411043E+03  0.00000000000E+00 0. -1.
        -13    1    3    3    0    0 -0.98718581163E+02  0.11497270603E+03 -0.17704982950E+03  0.23304661234E+03  0.00000000000E+00 0.  1.
         14    1    3    3    0    0 -0.97987384356E+02  0.26895757572E+03 -0.40063443454E+03  0.49238973910E+03  0.00000000000E+00 0. -1.
          5    1    4    4  501    0 -0.46717643994E+02 -0.18788083802E+03 -0.75674940272E+02  0.20791953766E+03  0.47000000000E+01 0.  1.
         -5    1    4    4    0  501  0.12485311580E+02 -0.10215389413E+03  0.42584194813E+02  0.11147557911E+03  0.47000000000E+01 0.  1.
          1    1    1    2  502    0 -0.35972534472E+02  0.12248309616E+02 -0.63602990504E+03  0.63716409537E+03  0.00000000000E+00 0. -1.
          1    1    1    2  503    0 -0.56957754425E+02  0.70826670655E+02  0.46185795612E+03  0.47071581097E+03  0.00000000000E+00 0. -1.
<mgrwt>
<rscale>  0 0.58809737E+02</rscale>
<asrwt>0</asrwt>
<pdfrwt beam="1">  1        2 0.11842800E+00 0.91014001E+02</pdfrwt>
<pdfrwt beam="2">  1        2 0.25934643E+00 0.38000583E+02</pdfrwt>
<totfact> 0.78891100E+01</totfact>
</mgrwt>
</event>
<event>
13    1  0.1595792E-008  0.8889588E+02  0.7546771E-02  0.1447047E+00
          2   -1    0    0  502    0  0.00000000000E+00  0.00000000000E+00  0.22281335765E+04  0.22281335765E+04  0.00000000000E+00 0. -1.
          2   -1    0    0  503    0 -0.00000000000E+00 -0.00000000000E+00 -0.26811398249E+04  0.26811398249E+04  0.00000000000E+00 0. -1.
         24    2    1    2    0    0  0.33013222722E+03  0.49840007551E+03 -0.54061836852E+03  0.81271049658E+03  0.10411632026E+03 0.  0.
         25    2    1    2    0    0  0.30420434570E+03 -0.19639527985E+03  0.31436430313E+02  0.38435112967E+03  0.12500460728E+03 0.  0.
         24    2    1    2    0    0 -0.56771002664E+03 -0.38936681080E+03  0.18278195621E+03  0.71670832138E+03  0.79752032724E+02 0.  0.
        -11    1    5    5    0    0 -0.38959435140E+03 -0.23636228195E+03  0.91518637251E+02  0.46478656170E+03  0.00000000000E+00 0.  1.
         12    1    5    5    0    0 -0.17811567523E+03 -0.15300452885E+03  0.91263318955E+02  0.25192175968E+03  0.00000000000E+00 0. -1.
        -13    1    3    3    0    0  0.87100646665E+02  0.81649074047E+02 -0.68222690410E+02  0.13750428877E+03  0.00000000000E+00 0.  1.
         14    1    3    3    0    0  0.24303158055E+03  0.41675100146E+03 -0.47239567811E+03  0.67520620781E+03  0.00000000000E+00 0. -1.
          5    1    4    4  501    0  0.29797775809E+03 -0.19973505389E+03  0.73708754709E+01  0.35883318670E+03  0.47000000000E+01 0. -1.
         -5    1    4    4    0  501  0.62265876102E+01  0.33397740453E+01  0.24065554842E+02  0.25517942977E+02  0.47000000000E+01 0. -1.
          1    1    1    2  502    0 -0.40040296179E+02  0.79341511425E+02  0.14329483272E+04  0.14357016435E+04  0.00000000000E+00 0. -1.
          1    1    1    2  503    0 -0.26586250098E+02  0.80205037125E+01 -0.15595545936E+04  0.15598018103E+04  0.00000000000E+00 0. -1.
<mgrwt>
<rscale>  0 0.49685143E+02</rscale>
<asrwt>0</asrwt>
<pdfrwt beam="1">  1        2 0.32766670E+00 0.88895882E+02</pdfrwt>
<pdfrwt beam="2">  1        2 0.39428527E+00 0.27769717E+02</pdfrwt>
<totfact> 0.57729338E+00</totfact>
</mgrwt>
</event>
<event>
13    1  0.1595792E-008  0.6518696E+02  0.7546771E-02  0.1439652E+00
          2   -1    0    0  502    0  0.00000000000E+00  0.00000000000E+00  0.10271352952E+04  0.10271352952E+04  0.00000000000E+00 0. -1.
          2   -1    0    0  503    0 -0.00000000000E+00 -0.00000000000E+00 -0.30683544345E+04  0.30683544345E+04  0.00000000000E+00 0. -1.
         24    2    1    2    0    0  0.63541401883E+02  0.11187176809E+02 -0.63726310133E+02  0.13000771214E+03  0.93157393345E+02 0.  0.
         25    2    1    2    0    0 -0.58908411054E+02 -0.14970578687E+03  0.18079210207E+03  0.27238035327E+03  0.12499299645E+03 0.  0.
         24    2    1    2    0    0 -0.13866173659E+02  0.60260862535E+02  0.18752342418E+03  0.21397419880E+03  0.82439558527E+02 0.  0.
        -11    1    3    3    0    0  0.13620359247E+02  0.27016605243E+02 -0.70958947984E+02  0.77140024915E+02  0.00000000000E+00 0.  1.
         12    1    3    3    0    0  0.49921042636E+02 -0.15829428434E+02  0.72326378512E+01  0.52867687226E+02  0.00000000000E+00 0. -1.
        -13    1    5    5    0    0 -0.40884136452E+02  0.17817176089E+02  0.13058786629E+03  0.13799331578E+03  0.00000000000E+00 0.  1.
         14    1    5    5    0    0  0.27017962793E+02  0.42443686445E+02  0.56935557895E+02  0.75980883025E+02  0.00000000000E+00 0. -1.
          5    1    4    4  501    0 -0.41419493999E+02  0.69600656527E+01  0.18665194765E+02  0.46200611388E+02  0.47000000000E+01 0.  1.
         -5    1    4    4    0  501 -0.17488917055E+02 -0.15666585252E+03  0.16212690730E+03  0.22617974188E+03  0.47000000000E+01 0.  1.
          1    1    1    2  502    0  0.35438999121E+02  0.18572665245E+02  0.56558800835E+03  0.56700146538E+03  0.00000000000E+00 0. -1.
          1    1    1    2  503    0 -0.26205816290E+02  0.59685082281E+02 -0.29113963638E+04  0.29121260002E+04  0.00000000000E+00 0. -1.
<mgrwt>
<rscale>  0 0.51070386E+02</rscale>
<asrwt>0</asrwt>
<pdfrwt beam="1">  1        2 0.15104931E+00 0.40010830E+02</pdfrwt>
<pdfrwt beam="2">  1        2 0.45122860E+00 0.65186958E+02</pdfrwt>
<totfact> 0.13181867E+01</totfact>
</mgrwt>
</event>
<event>
13    1  0.1595792E-008  0.1419502E+03  0.7546771E-02  0.1211034E+00
          2   -1    0    0  503    0  0.00000000000E+00  0.00000000000E+00  0.48314668701E+04  0.48314668701E+04  0.00000000000E+00 0. -1.
          2   -1    0    0  502    0 -0.00000000000E+00 -0.00000000000E+00 -0.13433789564E+04  0.13433789564E+04  0.00000000000E+00 0. -1.
         24    2    1    2    0    0  0.78514928401E+02 -0.14231102030E+03 -0.41461361076E+03  0.45354149067E+03  0.85897712683E+02 0.  0.
         25    2    1    2    0    0  0.57512122575E+02 -0.81312485980E+02 -0.53467907649E+02  0.16853294479E+03  0.12500068685E+03 0.  0.
         24    2    1    2    0    0 -0.71467267146E+02 -0.12509394508E+03  0.10093985834E+04  0.10228352587E+04  0.80934547226E+02 0.  0.
        -13    1    3    3    0    0  0.85466068601E+01 -0.85160950587E+02 -0.13641723513E+03  0.16104376434E+03  0.00000000000E+00 0.  1.
         14    1    3    3    0    0  0.69968321541E+02 -0.57150069718E+02 -0.27819637564E+03  0.29249772633E+03  0.00000000000E+00 0. -1.
        -13    1    5    5    0    0 -0.15299731719E+02 -0.10360193117E+03  0.60709058479E+03  0.61605715650E+03  0.00000000000E+00 0.  1.
         14    1    5    5    0    0 -0.56167535427E+02 -0.21492013906E+02  0.40230799859E+03  0.40677810219E+03  0.00000000000E+00 0. -1.
          5    1    4    4  501    0  0.57048830794E+02 -0.93098300056E+02 -0.82443667873E+02  0.13689744680E+03  0.47000000000E+01 0. -1.
         -5    1    4    4    0  501  0.46329178154E+00  0.11785814076E+02  0.28975760225E+02  0.31635497994E+02  0.47000000000E+01 0. -1.
          1    1    1    2  502    0 -0.60860962943E+02  0.12824119051E+03 -0.78193532796E+03  0.79471549429E+03  0.00000000000E+00 0. -1.
          1    1    1    2  503    0 -0.36988208874E+01  0.22047626085E+03  0.37287061767E+04  0.37352206380E+04  0.00000000000E+00 0. -1.
<mgrwt>
<rscale>  0 0.14171943E+03</rscale>
<asrwt>0</asrwt>
<pdfrwt beam="1">  1        2 0.71050983E+00 0.14148904E+03</pdfrwt>
<pdfrwt beam="2">  1        2 0.19755573E+00 0.14195020E+03</pdfrwt>
<totfact> 0.44855388E-01</totfact>
</mgrwt>
</event>
<event>
13    1  0.1595792E-008  0.7983746E+02  0.7546771E-02  0.1356096E+00
          2   -1    0    0  503    0  0.00000000000E+00  0.00000000000E+00  0.89314953129E+03  0.89314953129E+03  0.00000000000E+00 0. -1.
         -1   -1    0    0    0  501 -0.00000000000E+00 -0.00000000000E+00 -0.47417064146E+03  0.47417064146E+03  0.00000000000E+00 0.  1.
         24    2    1    2    0    0  0.15837620084E+02  0.52023774010E+02 -0.89656604662E+02  0.13183854556E+03  0.79911151064E+02 0.  0.
         25    2    1    2    0    0 -0.12657717557E+03 -0.28897864950E+02  0.17728413249E+03  0.25280717965E+03  0.12499975391E+03 0.  0.
         24    2    1    2    0    0 -0.17311308170E+02 -0.83361947276E+02  0.16148055764E+03  0.20480930686E+03  0.92854650067E+02 0.  0.
        -11    1    3    3    0    0  0.43555937453E+02  0.48881374081E+02 -0.45944911500E+02  0.79984019105E+02  0.00000000000E+00 0.  1.
         12    1    3    3    0    0 -0.27718317369E+02  0.31423999292E+01 -0.43711693162E+02  0.51854526458E+02  0.00000000000E+00 0. -1.
        -11    1    5    5    0    0 -0.16160543833E+02  0.10939834426E+02  0.72745831851E+02  0.75317987266E+02  0.00000000000E+00 0.  1.
         12    1    5    5    0    0 -0.11507643369E+01 -0.94301781702E+02  0.88734725787E+02  0.12949131960E+03  0.00000000000E+00 0. -1.
          5    1    4    4  502    0 -0.71752209206E+02 -0.78061353934E+02  0.11175636598E+03  0.15412180196E+03  0.47000000000E+01 0.  1.
         -5    1    4    4    0  502 -0.54824966365E+02  0.49163488984E+02  0.65527766512E+02  0.98685377691E+02  0.47000000000E+01 0.  1.
          1    1    1    2  503    0  0.73732171285E+02  0.27390641509E+02  0.46723095315E+03  0.47380528058E+03  0.00000000000E+00 0. -1.
         -2    1    1    2    0  501  0.54318692371E+02  0.32845396707E+02 -0.29736014879E+03  0.30405986008E+03  0.00000000000E+00 0.  1.
<mgrwt>
<rscale>  0 0.71188828E+02</rscale>
<asrwt>0</asrwt>
<pdfrwt beam="1">  1        2 0.13134552E+00 0.79837460E+02</pdfrwt>
<pdfrwt beam="2">  1       -1 0.69730977E-01 0.63477086E+02</pdfrwt>
<totfact> 0.88345415E+01</totfact>
</mgrwt>
</event>
<event>
13    1  0.1595792E-008  0.6703373E+02  0.7546771E-02  0.1502717E+00
          2   -1    0    0  503    0  0.00000000000E+00  0.00000000000E+00  0.54418252659E+03  0.54418252659E+03  0.00000000000E+00 0. -1.
          2   -1    0    0  502    0 -0.00000000000E+00 -0.00000000000E+00 -0.54275532357E+03  0.54275532357E+03  0.00000000000E+00 0. -1.
         24    2    1    2    0    0 -0.15522723990E+01 -0.11553371194E+02  0.10002288425E+02  0.83832100119E+02  0.82412895235E+02 0.  0.
         25    2    1    2    0    0 -0.31193305799E+02 -0.22782873241E+02  0.82897185876E+02  0.15487508554E+03  0.12498906774E+03 0.  0.
         24    2    1    2    0    0  0.16219163368E+00 -0.38190045454E+01  0.15117720542E+03  0.17082409808E+03  0.79446295983E+02 0.  0.
        -11    1    5    5    0    0  0.37929704124E+02 -0.11361780616E+02  0.60476188216E+02  0.72285004357E+02  0.00000000000E+00 0.  1.
         12    1    5    5    0    0 -0.37767512490E+02  0.75427760707E+01  0.90701017199E+02  0.98539093722E+02  0.00000000000E+00 0. -1.
        -13    1    3    3    0    0 -0.21187372276E+02  0.23272954093E+02 -0.16822623434E+02  0.35686633287E+02  0.00000000000E+00 0.  1.
         14    1    3    3    0    0  0.19635099877E+02 -0.34826325287E+02  0.26824911859E+02  0.48145466832E+02  0.00000000000E+00 0. -1.
          5    1    4    4  501    0  0.30417780826E+02 -0.51008158547E+02  0.21580068700E+02  0.63362946537E+02  0.47000000000E+01 0.  1.
         -5    1    4    4    0  501 -0.61611086626E+02  0.28225285307E+02  0.61317117176E+02  0.91512139001E+02  0.47000000000E+01 0.  1.
          1    1    1    2  502    0 -0.24754622434E+02  0.11219100708E+01 -0.45432374721E+03  0.45499902999E+03  0.00000000000E+00 0. -1.
          1    1    1    2  503    0  0.57338008999E+02  0.37033338909E+02  0.21167427051E+03  0.22240753643E+03  0.00000000000E+00 0. -1.
<mgrwt>
<rscale>  0 0.40756570E+02</rscale>
<asrwt>0</asrwt>
<pdfrwt beam="1">  1        2 0.80026842E-01 0.67033728E+02</pdfrwt>
<pdfrwt beam="2">  1        2 0.79816959E-01 0.24780033E+02</pdfrwt>
<totfact> 0.58436222E+02</totfact>
</mgrwt>
</event>
<event>
13    1  0.1595792E-008  0.9395796E+02  0.7546771E-02  0.1414384E+00
          2   -1    0    0  503    0  0.00000000000E+00  0.00000000000E+00  0.10326723978E+04  0.10326723978E+04  0.00000000000E+00 0. -1.
         -1   -1    0    0    0  501 -0.00000000000E+00 -0.00000000000E+00 -0.14586528990E+04  0.14586528990E+04  0.00000000000E+00 0.  1.
         24    2    1    2    0    0  0.33466109434E+02  0.79037184589E+02 -0.20275394075E+03  0.23431567130E+03  0.80173663366E+02 0.  0.
         25    2    1    2    0    0 -0.11477225559E+03 -0.15726947578E+03 -0.19517779177E+03  0.30269739816E+03  0.12499994315E+03 0.  0.
         24    2    1    2    0    0  0.25843575038E+02  0.10698232323E+03  0.76414372622E+02  0.15643849210E+03  0.80751084275E+02 0.  0.
        -11    1    5    5    0    0  0.46237691502E+02  0.86199667123E+02  0.31225140864E+02  0.10268065129E+03  0.00000000000E+00 0.  1.
         12    1    5    5    0    0 -0.20394116463E+02  0.20782656109E+02  0.45189231758E+02  0.53757840806E+02  0.00000000000E+00 0. -1.
        -11    1    3    3    0    0  0.54876302732E+02  0.27230204165E+02 -0.10029287947E+03  0.11752256929E+03  0.00000000000E+00 0.  1.
         12    1    3    3    0    0 -0.21410193298E+02  0.51806980424E+02 -0.10246106127E+03  0.11679310200E+03  0.00000000000E+00 0. -1.
          5    1    4    4  502    0  0.20650199179E+00 -0.97291360863E+02 -0.55775124138E+02  0.11224351213E+03  0.47000000000E+01 0.  1.
         -5    1    4    4    0  502 -0.11497875758E+03 -0.59978114920E+02 -0.13940266763E+03  0.19045388604E+03  0.47000000000E+01 0.  1.
          1    1    1    2  503    0 -0.21440067880E+02  0.25932367483E+02  0.84402893285E+03  0.84469935698E+03  0.00000000000E+00 0. -1.
         -2    1    1    2    0  501  0.76902638994E+02 -0.54682399521E+02 -0.94849207419E+03  0.95317437833E+03  0.00000000000E+00 0.  1.
<mgrwt>
<rscale>  0 0.56226901E+02</rscale>
<asrwt>0</asrwt>
<pdfrwt beam="1">  1        2 0.15186359E+00 0.33647648E+02</pdfrwt>
<pdfrwt beam="2">  1       -1 0.21450778E+00 0.93957961E+02</pdfrwt>
<totfact> 0.50661806E+00</totfact>
</mgrwt>
</event>
<event>
13    1  0.1595792E-008  0.1822283E+03  0.7546771E-02  0.1198867E+00
          2   -1    0    0  503    0  0.00000000000E+00  0.00000000000E+00  0.19935635893E+04  0.19935635893E+04  0.00000000000E+00 0. -1.
          2   -1    0    0  502    0 -0.00000000000E+00 -0.00000000000E+00 -0.29630026395E+04  0.29630026395E+04  0.00000000000E+00 0. -1.
         24    2    1    2    0    0 -0.24601488035E+03 -0.13011533928E+03 -0.75420288013E+03  0.80798808369E+03  0.81052058095E+02 0.  0.
         25    2    1    2    0    0  0.38725918788E+02  0.50455520769E+02  0.11500475924E+03  0.18137605534E+03  0.12500288973E+03 0.  0.
         24    2    1    2    0    0 -0.10549595031E+03  0.84478544837E+02  0.16656397133E+03  0.22931455958E+03  0.81090015520E+02 0.  0.
        -13    1    3    3    0    0 -0.90741564713E+02 -0.21974461235E+02 -0.34045542475E+03  0.35302521830E+03  0.00000000000E+00 0.  1.
         14    1    3    3    0    0 -0.15527331563E+03 -0.10814087804E+03 -0.41374745538E+03  0.45496286539E+03  0.00000000000E+00 0. -1.
        -13    1    5    5    0    0 -0.16430675945E+02  0.20944787232E+02  0.94817828180E+02  0.98483865506E+02  0.00000000000E+00 0.  1.
         14    1    5    5    0    0 -0.89065274367E+02  0.63533757604E+02  0.71746143154E+02  0.13083069407E+03  0.00000000000E+00 0. -1.
          5    1    4    4  501    0  0.69875142211E+02  0.35303886814E+02  0.21160469267E+02  0.81232723596E+02  0.47000000000E+01 0.  1.
         -5    1    4    4    0  501 -0.31149223424E+02  0.15151633955E+02  0.93844289976E+02  0.10014333174E+03  0.47000000000E+01 0.  1.
          1    1    1    2  502    0  0.12218985647E+03  0.29265465479E+02 -0.21096871540E+04  0.21134253514E+04  0.00000000000E+00 0. -1.
          1    1    1    2  503    0  0.19059505540E+03 -0.34084191806E+02  0.16128822533E+04  0.16244621787E+04  0.00000000000E+00 0. -1.
<mgrwt>
<rscale>  0 0.15131486E+03</rscale>
<asrwt>0</asrwt>
<pdfrwt beam="1">  1        2 0.29317112E+00 0.18222827E+03</pdfrwt>
<pdfrwt beam="2">  1        2 0.43573568E+00 0.12564565E+03</pdfrwt>
<totfact> 0.39595495E+00</totfact>
</mgrwt>
</event>
<event>
13    1  0.1595792E-008  0.3513008E+03  0.7546771E-02  0.1135541E+00
          2   -1    0    0  503    0  0.00000000000E+00  0.00000000000E+00  0.30767074685E+04  0.30767074685E+04  0.00000000000E+00 0. -1.
          2   -1    0    0  502    0 -0.00000000000E+00 -0.00000000000E+00 -0.15722594657E+04  0.15722594657E+04  0.00000000000E+00 0. -1.
         24    2    1    2    0    0  0.90837710693E+02  0.35342494693E+03 -0.52473066186E+03  0.64418032007E+03  0.80407303599E+02 0.  0.
         25    2    1    2    0    0 -0.10591137972E+03 -0.13301872463E+03  0.11689162703E+04  0.11878137286E+04  0.12500002157E+03 0.  0.
         24    2    1    2    0    0 -0.22772805273E+02  0.24524617023E+02  0.16429572042E+03  0.18667044512E+03  0.82053115935E+02 0.  0.
        -11    1    3    3    0    0 -0.28538309653E+01  0.10180376636E+02 -0.46893452034E+00  0.10583209306E+02  0.00000000000E+00 0.  1.
         12    1    3    3    0    0  0.93691541658E+02  0.34324457030E+03 -0.52426172734E+03  0.63359711077E+03  0.00000000000E+00 0. -1.
        -13    1    5    5    0    0  0.89596669544E+01  0.30192336372E+02  0.16801996796E+02  0.35695376505E+02  0.00000000000E+00 0.  1.
         14    1    5    5    0    0 -0.31732472227E+02 -0.56677193491E+01  0.14749372362E+03  0.15097506862E+03  0.00000000000E+00 0. -1.
          5    1    4    4  501    0 -0.42547902899E+01 -0.79034941792E+02  0.71999924589E+03  0.72435186846E+03  0.47000000000E+01 0. -1.
         -5    1    4    4    0  501 -0.10165658943E+03 -0.53983782841E+02  0.44891702440E+03  0.46346186011E+03  0.47000000000E+01 0. -1.
          1    1    1    2  502    0  0.20460379632E+03 -0.33171011012E+03 -0.92224185413E+03  0.10012114403E+04  0.00000000000E+00 0. -1.
          1    1    1    2  503    0 -0.16675732202E+03  0.86779270795E+02  0.16182085281E+04  0.16290910002E+04  0.00000000000E+00 0. -1.
<mgrwt>
<rscale>  0 0.21779020E+03</rscale>
<asrwt>0</asrwt>
<pdfrwt beam="1">  1        2 0.45245698E+00 0.13501980E+03</pdfrwt>
<pdfrwt beam="2">  1        2 0.23121463E+00 0.35130084E+03</pdfrwt>
<totfact> 0.52432570E+00</totfact>
</mgrwt>
</event>
<event>
13    1  0.1595792E-008  0.9924068E+02  0.7546771E-02  0.1404988E+00
          2   -1    0    0  503    0  0.00000000000E+00  0.00000000000E+00  0.82924420623E+03  0.82924420623E+03  0.00000000000E+00 0. -1.
          2   -1    0    0  502    0 -0.00000000000E+00 -0.00000000000E+00 -0.33952386600E+03  0.33952386600E+03  0.00000000000E+00 0. -1.
         24    2    1    2    0    0 -0.23757556106E+01 -0.11960454925E+02 -0.17293425316E+03  0.19200741238E+03  0.82534197722E+02 0.  0.
         25    2    1    2    0    0  0.59267265774E+02 -0.12692072352E+03  0.62828345548E+02  0.19797313794E+03  0.12499793394E+03 0.  0.
         24    2    1    2    0    0  0.32655479006E+02  0.28542322036E+02  0.13344024118E+03  0.15677666474E+03  0.69939832607E+02 0.  0.
        -11    1    5    5    0    0  0.50215213812E+01 -0.20505570368E+02  0.63945700995E+02  0.67340528428E+02  0.00000000000E+00 0.  1.
         12    1    5    5    0    0  0.27633957625E+02  0.49047892404E+02  0.69494540183E+02  0.89436136313E+02  0.00000000000E+00 0. -1.
        -13    1    3    3    0    0 -0.31053465205E+02 -0.32346185646E+02 -0.12303112994E+03  0.13094751758E+03  0.00000000000E+00 0.  1.
         14    1    3    3    0    0  0.28677709595E+02  0.20385730721E+02 -0.49903123226E+02  0.61059894795E+02  0.00000000000E+00 0. -1.
          5    1    4    4  501    0  0.96479573927E+02 -0.74727841373E+02  0.52261355167E+02  0.13283786247E+03  0.47000000000E+01 0.  1.
         -5    1    4    4    0  501 -0.37212308153E+02 -0.52192882143E+02  0.10566990381E+02  0.65135275467E+02  0.47000000000E+01 0.  1.
          1    1    1    2  502    0 -0.24389523362E+02  0.24090549329E+02 -0.68346678236E+02  0.76462224939E+02  0.00000000000E+00 0. -1.
          1    1    1    2  503    0 -0.65157465808E+02  0.86248307076E+02  0.53473268491E+03  0.54554863223E+03  0.00000000000E+00 0. -1.
<mgrwt>
<rscale>  0 0.58327467E+02</rscale>
<asrwt>0</asrwt>
<pdfrwt beam="1">  1        2 0.12194768E+00 0.99240677E+02</pdfrwt>
<pdfrwt beam="2">  1        2 0.49929980E-01 0.34281240E+02</pdfrwt>
<totfact> 0.57461572E+02</totfact>
</mgrwt>
</event>
<event>
13    1  0.1595792E-008  0.2872931E+03  0.7546771E-02  0.1195063E+00
          2   -1    0    0  502    0  0.00000000000E+00  0.00000000000E+00  0.18815202909E+04  0.18815202909E+04  0.00000000000E+00 0. -1.
          4   -1    0    0  503    0 -0.00000000000E+00 -0.00000000000E+00 -0.76971384589E+03  0.76971384589E+03  0.00000000000E+00 0. -1.
         24    2    1    2    0    0  0.17168070554E+02  0.87798032331E+02 -0.15485014059E+03  0.19648485817E+03  0.81391008849E+02 0.  0.
         25    2    1    2    0    0 -0.25328494272E+03  0.52106467448E+02 -0.52318015601E+01  0.28726296201E+03  0.12499716571E+03 0.  0.
         24    2    1    2    0    0  0.13490045695E+00  0.15618651806E+03  0.15441125794E+03  0.23424145774E+03  0.81436953069E+02 0.  0.
        -13    1    3    3    0    0  0.20346903197E+02  0.97195323609E+02 -0.15752300841E+03  0.18621070211E+03  0.00000000000E+00 0.  1.
         14    1    3    3    0    0 -0.31788326429E+01 -0.93972912779E+01  0.26728678223E+01  0.10274156059E+02  0.00000000000E+00 0. -1.
        -13    1    5    5    0    0  0.36659889605E+02  0.43716953050E+02  0.61204261936E+02  0.83672463625E+02  0.00000000000E+00 0.  1.
         14    1    5    5    0    0 -0.36524989148E+02  0.11246956501E+03  0.93206996004E+02  0.15056899412E+03  0.00000000000E+00 0. -1.
          5    1    4    4  501    0  0.99580514865E+01 -0.49597239227E+01  0.12372946860E+02  0.17289923794E+02  0.47000000000E+01 0.  1.
         -5    1    4    4    0  501 -0.26324299420E+03  0.57066191371E+02 -0.17604748420E+02  0.26997303821E+03  0.47000000000E+01 0.  1.
          1    1    1    2  502    0  0.17839718737E+03 -0.23621239119E+03  0.15065738882E+04  0.15353783673E+04  0.00000000000E+00 0. -1.
          3    1    1    2  503    0  0.57584784335E+02 -0.59878626651E+02 -0.38909675894E+03  0.39786649160E+03  0.00000000000E+00 0. -1.
<mgrwt>
<rscale>  0 0.15448909E+03</rscale>
<asrwt>0</asrwt>
<pdfrwt beam="1">  1        2 0.27669416E+00 0.28729311E+03</pdfrwt>
<pdfrwt beam="2">  1        4 0.11319321E+00 0.83075010E+02</pdfrwt>
<totfact> 0.30995968E+00</totfact>
</mgrwt>
</event>
<event>
13    1  0.1595792E-008  0.9380880E+02  0.7546771E-02  0.1297780E+00
          2   -1    0    0  503    0  0.00000000000E+00  0.00000000000E+00  0.87154827746E+03  0.87154827746E+03  0.00000000000E+00 0. -1.
          2   -1    0    0  502    0 -0.00000000000E+00 -0.00000000000E+00 -0.19549352139E+04  0.19549352139E+04  0.00000000000E+00 0. -1.
         24    2    1    2    0    0 -0.57875062916E+02 -0.25381699975E+02 -0.14637088730E+03  0.17956647973E+03  0.82619188993E+02 0.  0.
         25    2    1    2    0    0  0.25578607724E+02 -0.14337330783E+03 -0.79086110886E+02  0.20758126050E+03  0.12500078482E+03 0.  0.
         24    2    1    2    0    0 -0.43549856317E+02 -0.12613639691E+02  0.37511097238E+02  0.99020293963E+02  0.79638196295E+02 0.  0.
        -11    1    3    3    0    0  0.18036451947E+02  0.76601499782E+01 -0.41999321850E+02  0.46345814616E+02  0.00000000000E+00 0.  1.
         12    1    3    3    0    0 -0.75911514863E+02 -0.33041849953E+02 -0.10437156545E+03  0.13322066511E+03  0.00000000000E+00 0. -1.
        -11    1    5    5    0    0  0.22626315594E+02 -0.62791792577E+01  0.17829674627E+01  0.23549038674E+02  0.00000000000E+00 0.  1.
         12    1    5    5    0    0 -0.66176171910E+02 -0.63344604336E+01  0.35728129775E+02  0.75471255289E+02  0.00000000000E+00 0. -1.
          5    1    4    4  501    0 -0.16075562200E+02 -0.11212064034E+02 -0.65192669537E+02  0.68237147078E+02  0.47000000000E+01 0. -1.
         -5    1    4    4    0  501  0.41654169924E+02 -0.13216124379E+03 -0.13893441349E+02  0.13934411342E+03  0.47000000000E+01 0. -1.
          1    1    1    2  502    0  0.44847240369E+02  0.81085692364E+02 -0.16127286577E+04  0.16153884634E+04  0.00000000000E+00 0. -1.
          1    1    1    2  503    0  0.30999071139E+02  0.10028295513E+03  0.71728762213E+03  0.72492699381E+03  0.00000000000E+00 0. -1.
<mgrwt>
<rscale>  0 0.92127526E+02</rscale>
<asrwt>0</asrwt>
<pdfrwt beam="1">  1        2 0.12816887E+00 0.90476382E+02</pdfrwt>
<pdfrwt beam="2">  1        2 0.28749047E+00 0.93808804E+02</pdfrwt>
<totfact> 0.53111098E+01</totfact>
</mgrwt>
</event>
<event>
13    1  0.1595792E-008  0.7838930E+02  0.7546771E-02  0.1566677E+00
          2   -1    0    0  503    0  0.00000000000E+00  0.00000000000E+00  0.14290869658E+04  0.14290869658E+04  0.00000000000E+00 0. -1.
          2   -1    0    0  502    0 -0.00000000000E+00 -0.00000000000E+00 -0.12837022254E+04  0.12837022254E+04  0.00000000000E+00 0. -1.
         24    2    1    2    0    0  0.13434379319E+03  0.26234571580E+01 -0.40011530283E+03  0.43064640567E+03  0.85492302950E+02 0.  0.
         25    2    1    2    0    0  0.25267245252E+02 -0.45731991967E+02 -0.35247015956E+02  0.13999116684E+03  0.12500130354E+03 0.  0.
         24    2    1    2    0    0 -0.80588140102E+02  0.29859416421E+01 -0.34811803057E+02  0.11880297209E+03  0.79993252047E+02 0.  0.
        -11    1    5    5    0    0  0.13632822160E+02  0.45386958349E+01  0.66723161752E+01  0.15842140104E+02  0.00000000000E+00 0.  1.
         12    1    5    5    0    0 -0.94220962262E+02 -0.15527541928E+01 -0.41484119232E+02  0.10296083199E+03  0.00000000000E+00 0. -1.
        -13    1    3    3    0    0  0.71896238965E+02  0.38900097052E+02 -0.26659292399E+03  0.27884417485E+03  0.00000000000E+00 0.  1.
         14    1    3    3    0    0  0.62447554224E+02 -0.36276639894E+02 -0.13352237884E+03  0.15180223082E+03  0.00000000000E+00 0. -1.
          5    1    4    4  501    0  0.83787923655E+01 -0.62885154930E+02 -0.71828393247E+02  0.95948709989E+02  0.47000000000E+01 0.  1.
         -5    1    4    4    0  501  0.16888452886E+02  0.17153162963E+02  0.36581377292E+02  0.44042456846E+02  0.47000000000E+01 0.  1.
          1    1    1    2  502    0 -0.73217126953E+02  0.27459747300E+02 -0.70168618203E+03  0.70602994516E+03  0.00000000000E+00 0. -1.
          1    1    1    2  503    0 -0.58057713861E+01  0.12662845867E+02  0.13172450443E+04  0.13173187015E+04  0.00000000000E+00 0. -1.
<mgrwt>
<rscale>  0 0.33045278E+02</rscale>
<asrwt>0</asrwt>
<pdfrwt beam="1">  1        2 0.21015985E+00 0.13930350E+02</pdfrwt>
<pdfrwt beam="2">  1        2 0.18877974E+00 0.78389303E+02</pdfrwt>
<totfact> 0.66419889E+01</totfact>
</mgrwt>
</event>
<event>
13    1  0.1595792E-008  0.6811818E+02  0.7546771E-02  0.1410849E+00
         -1   -1    0    0    0  501  0.00000000000E+00  0.00000000000E+00  0.79719127937E+03  0.79719127937E+03  0.00000000000E+00 0.  1.
         -3   -1    0    0    0  502 -0.00000000000E+00 -0.00000000000E+00 -0.71847628011E+03  0.71847628011E+03  0.00000000000E+00 0.  1.
         24    2    1    2    0    0  0.12677768437E+02  0.16238378625E+03  0.58092712496E+00  0.18059908518E+03  0.78015846087E+02 0.  0.
         25    2    1    2    0    0  0.10916662601E+03 -0.25342459769E+03 -0.10168358016E+03  0.31956041463E+03  0.12505170601E+03 0.  0.
         24    2    1    2    0    0 -0.13933465947E+03  0.75715750752E+02  0.64143424076E+02  0.18857296662E+03  0.79362224298E+02 0.  0.
        -11    1    3    3    0    0  0.29232417392E+02  0.88930212845E+02  0.32114109495E+02  0.98966827836E+02  0.00000000000E+00 0.  1.
         12    1    3    3    0    0 -0.16554648956E+02  0.73453573409E+02 -0.31533182370E+02  0.81632257344E+02  0.00000000000E+00 0. -1.
        -11    1    5    5    0    0 -0.12196701856E+03  0.26447152313E+02  0.50065687763E+02  0.13446924768E+03  0.00000000000E+00 0.  1.
         12    1    5    5    0    0 -0.17367640915E+02  0.49268598439E+02  0.14077736312E+02  0.54103718937E+02  0.00000000000E+00 0. -1.
          5    1    4    4  503    0  0.55936374594E+02 -0.10923396029E+03  0.18752943173E+02  0.12423646389E+03  0.47000000000E+01 0. -1.
         -5    1    4    4    0  503  0.53230251411E+02 -0.14419063740E+03 -0.12043652333E+03  0.19532395074E+03  0.47000000000E+01 0. -1.
         -2    1    1    2    0  501  0.30707836588E+02  0.61162156273E+02  0.46720057348E+03  0.47218656953E+03  0.00000000000E+00 0.  1.
         -4    1    1    2    0  502 -0.13217571555E+02 -0.45837095587E+02 -0.35152634526E+03  0.35474852352E+03  0.00000000000E+00 0.  1.
<mgrwt>
<rscale>  0 0.57004920E+02</rscale>
<asrwt>0</asrwt>
<pdfrwt beam="1">  1       -1 0.11723401E+00 0.68118179E+02</pdfrwt>
<pdfrwt beam="2">  1       -3 0.10565828E+00 0.47704754E+02</pdfrwt>
<totfact> 0.26776964E+00</totfact>
</mgrwt>
</event>
<event>
13    1  0.1595792E-008  0.4275476E+02  0.7546771E-02  0.1697212E+00
         -1   -1    0    0    0  501 -0.00000000000E+00  0.00000000000E+00  0.87934949765E+03  0.87934949765E+03  0.00000000000E+00 0.  1.
          2   -1    0    0  503    0  0.00000000000E+00 -0.00000000000E+00 -0.39844408717E+04  0.39844408717E+04  0.00000000000E+00 0. -1.
         24    2    1    2    0    0 -0.12422845610E+03  0.38548342648E+02  0.35052177238E+03  0.38235653819E+03  0.80076996470E+02 0.  0.
         25    2    1    2    0    0 -0.57760742080E+03 -0.38889990115E+03 -0.29264506804E+03  0.76559425631E+03  0.12497985347E+03 0.  0.
         24    2    1    2    0    0  0.64826859860E+03  0.34935517127E+03 -0.19577386063E+04  0.20939009444E+04  0.96847833445E+02 0.  0.
        -13    1    3    3    0    0 -0.56914091919E+01 -0.41681230215E+01  0.11528510008E+03  0.11550073458E+03  0.00000000000E+00 0.  1.
         14    1    3    3    0    0 -0.11853704691E+03  0.42716465669E+02  0.23523667229E+03  0.26685580361E+03  0.00000000000E+00 0. -1.
        -13    1    5    5    0    0  0.27541860974E+03  0.19411873880E+03 -0.81591294295E+03  0.88275218822E+03  0.00000000000E+00 0.  1.
         14    1    5    5    0    0  0.37284998886E+03  0.15523643247E+03 -0.11418256634E+04  0.12111487562E+04  0.00000000000E+00 0. -1.
          5    1    4    4  502    0 -0.25132904127E+03 -0.22776756120E+03 -0.99060650427E+02  0.35338286798E+03  0.47000000000E+01 0. -1.
         -5    1    4    4    0  502 -0.32627837953E+03 -0.16113233995E+03 -0.19358441762E+03  0.41221138833E+03  0.47000000000E+01 0. -1.
          1    1    1    2  503    0  0.42578005796E+02 -0.38275769602E+01 -0.14130877093E+04  0.14137342080E+04  0.00000000000E+00 0. -1.
         -2    1    1    2    0  501  0.10989272502E+02  0.48239641915E+01  0.20785823717E+03  0.20820442238E+03  0.00000000000E+00 0.  1.
<mgrwt>
<rscale>  0 0.22652131E+02</rscale>
<asrwt>0</asrwt>
<pdfrwt beam="2">  1        2 0.58594718E+00 0.42754763E+02</pdfrwt>
<pdfrwt beam="1">  1       -1 0.12931610E+00 0.12001447E+02</pdfrwt>
<totfact> 0.69343237E-01</totfact>
</mgrwt>
</event>
<event>
13    1  0.1595792E-008  0.1189341E+03  0.7546771E-02  0.1352223E+00
          2   -1    0    0  503    0  0.00000000000E+00  0.00000000000E+00  0.13683027033E+04  0.13683027033E+04  0.00000000000E+00 0. -1.
          2   -1    0    0  502    0 -0.00000000000E+00 -0.00000000000E+00 -0.30196155787E+04  0.30196155787E+04  0.00000000000E+00 0. -1.
         24    2    1    2    0    0 -0.31911604853E+02 -0.11200955137E+03  0.13626530173E+02  0.14089221420E+03  0.78105336407E+02 0.  0.
         25    2    1    2    0    0 -0.14083705627E+03  0.28966492197E+03  0.32963782613E+03  0.47752453989E+03  0.12501098490E+03 0.  0.
         24    2    1    2    0    0  0.68957564481E+02 -0.58151193445E+02  0.36841857269E+03  0.38776764922E+03  0.80590310075E+02 0.  0.
        -11    1    3    3    0    0 -0.47802383804E+02 -0.11454960435E+03  0.11392326917E+02  0.12464535638E+03  0.00000000000E+00 0.  1.
         12    1    3    3    0    0  0.15890778951E+02  0.25400529830E+01  0.22342032559E+01  0.16246857820E+02  0.00000000000E+00 0. -1.
        -13    1    5    5    0    0  0.46986667126E+02  0.85493044780E+01  0.19283966002E+03  0.19866547755E+03  0.00000000000E+00 0.  1.
         14    1    5    5    0    0  0.21970897355E+02 -0.66700497923E+02  0.17557891267E+03  0.18910217167E+03  0.00000000000E+00 0. -1.
          5    1    4    4  501    0 -0.98253222306E+02  0.73208038245E+02  0.14428396637E+03  0.18934905732E+03  0.47000000000E+01 0.  1.
         -5    1    4    4    0  501 -0.42583833963E+02  0.21645688373E+03  0.18535385976E+03  0.28817548257E+03  0.47000000000E+01 0.  1.
          1    1    1    2  502    0  0.64326890872E+02 -0.99972530580E+02 -0.28701804691E+04  0.28726413596E+04  0.00000000000E+00 0. -1.
          1    1    1    2  503    0  0.39464205769E+02 -0.19531646580E+02  0.50718466472E+03  0.50909251898E+03  0.00000000000E+00 0. -1.
<mgrwt>
<rscale>  0 0.72367314E+02</rscale>
<asrwt>0</asrwt>
<pdfrwt beam="1">  1        2 0.20122099E+00 0.44033042E+02</pdfrwt>
<pdfrwt beam="2">  1        2 0.44406110E+00 0.11893405E+03</pdfrwt>
<totfact> 0.84751562E+00</totfact>
</mgrwt>
</event>
<event>
13    1  0.1595792E-008  0.7073493E+02  0.7546771E-02  0.1440594E+00
          4   -1    0    0  503    0 -0.00000000000E+00  0.00000000000E+00  0.15476483938E+04  0.15476483938E+04  0.00000000000E+00 0. -1.
          2   -1    0    0  502    0  0.00000000000E+00 -0.00000000000E+00 -0.69065671296E+03  0.69065671296E+03  0.00000000000E+00 0. -1.
         24    2    1    2    0    0  0.59175753342E+02 -0.43571269037E+03  0.83417432429E+03  0.94574391870E+03  0.72370146596E+02 0.  0.
         25    2    1    2    0    0  0.18368549261E+03  0.91449107947E+02  0.14280668848E+02  0.24069317198E+03  0.12500386392E+03 0.  0.
         24    2    1    2    0    0 -0.17494060014E+03  0.29432499481E+03 -0.18668742073E+03  0.39815989103E+03  0.80297506936E+02 0.  0.
        -11    1    5    5    0    0 -0.11322838442E+03  0.11364052914E+03 -0.93802743406E+02  0.18583269780E+03  0.00000000000E+00 0.  1.
         12    1    5    5    0    0 -0.61712215719E+02  0.18068446567E+03 -0.92884677325E+02  0.21232719323E+03  0.00000000000E+00 0. -1.
        -13    1    3    3    0    0  0.34574677695E+02 -0.62407926849E+02  0.12427177915E+03  0.14329561321E+03  0.00000000000E+00 0.  1.
         14    1    3    3    0    0  0.24601075647E+02 -0.37330476352E+03  0.70990254513E+03  0.80244830549E+03  0.00000000000E+00 0. -1.
          5    1    4    4  501    0  0.13202327709E+03  0.44540782483E+02 -0.47592905650E+02  0.14731327729E+03  0.47000000000E+01 0. -1.
         -5    1    4    4    0  501  0.51662215514E+02  0.46908325463E+02  0.61873574499E+02  0.93379894682E+02  0.47000000000E+01 0. -1.
          1    1    1    2  502    0 -0.34469420857E+02 -0.12347095687E+02 -0.22480664312E+03  0.22776878306E+03  0.00000000000E+00 0. -1.
          3    1    1    2  503    0 -0.33451224953E+02  0.62285683304E+02  0.42003075153E+03  0.42593934196E+03  0.00000000000E+00 0. -1.
<mgrwt>
<rscale>  0 0.50891015E+02</rscale>
<asrwt>0</asrwt>
<pdfrwt beam="2">  1        2 0.10156716E+00 0.36614092E+02</pdfrwt>
<pdfrwt beam="1">  1        4 0.22759535E+00 0.70734935E+02</pdfrwt>
<totfact> 0.25405766E+00</totfact>
</mgrwt>
</event>
<event>
13    1  0.1595792E-008  0.3891738E+02  0.7546771E-02  0.1606908E+00
          2   -1    0    0  502    0  0.00000000000E+00  0.00000000000E+00  0.38020079244E+04  0.38020079244E+04  0.00000000000E+00 0. -1.
          2   -1    0    0  503    0 -0.00000000000E+00 -0.00000000000E+00 -0.27667269915E+04  0.27667269915E+04  0.00000000000E+00 0. -1.
         24    2    1    2    0    0  0.40764541603E+03  0.22291704206E+03 -0.87038143165E+03  0.98977190469E+03  0.78852989168E+02 0.  0.
         25    2    1    2    0    0 -0.34275200248E+03  0.11144018613E+04 -0.72266837926E+02  0.11748266966E+04  0.12499930996E+03 0.  0.
         24    2    1    2    0    0 -0.60864425208E+01 -0.13242674098E+04  0.26126726547E+03  0.13515983783E+04  0.69544049091E+02 0.  0.
        -11    1    5    5    0    0  0.11062469419E+02 -0.34099604712E+03  0.95644628527E+02  0.35432834680E+03  0.00000000000E+00 0.  1.
         12    1    5    5    0    0 -0.17148911940E+02 -0.98327136271E+03  0.16562263694E+03  0.99727003152E+03  0.00000000000E+00 0. -1.
        -13    1    3    3    0    0  0.20279377107E+03  0.14129108711E+03 -0.52041694525E+03  0.57612696672E+03  0.00000000000E+00 0.  1.
         14    1    3    3    0    0  0.20485164497E+03  0.81625954952E+02 -0.34996448641E+03  0.41364493798E+03  0.00000000000E+00 0. -1.
          5    1    4    4  501    0 -0.80127921493E+02  0.12735991746E+03 -0.22563338459E+02  0.15222426423E+03  0.47000000000E+01 0.  1.
         -5    1    4    4    0  501 -0.26262408099E+03  0.98704194383E+03 -0.49703499468E+02  0.10226024323E+04  0.47000000000E+01 0.  1.
          1    1    1    2  502    0 -0.20144452902E+02 -0.86789150422E+01  0.23839828056E+04  0.23840837108E+04  0.00000000000E+00 0. -1.
          1    1    1    2  503    0 -0.38662518132E+02 -0.43725784731E+01 -0.66732086865E+03  0.66845422542E+03  0.00000000000E+00 0. -1.
<mgrwt>
<rscale>  0 0.29217008E+02</rscale>
<asrwt>0</asrwt>
<pdfrwt beam="1">  1        2 0.55911881E+00 0.21934506E+02</pdfrwt>
<pdfrwt beam="2">  1        2 0.40687162E+00 0.38917383E+02</pdfrwt>
<totfact> 0.95574476E-01</totfact>
</mgrwt>
</event>
<event>
13    1  0.1595792E-008  0.5243910E+02  0.7546771E-02  0.1559710E+00
          2   -1    0    0  502    0  0.00000000000E+00  0.00000000000E+00  0.10113610260E+04  0.10113610260E+04  0.00000000000E+00 0. -1.
          2   -1    0    0  503    0 -0.00000000000E+00 -0.00000000000E+00 -0.12931124238E+04  0.12931124238E+04  0.00000000000E+00 0. -1.
         24    2    1    2    0    0  0.21474485292E+03  0.18662714002E+03 -0.28210075555E+03  0.40464665168E+03  0.56683641220E+02 0.  0.
         25    2    1    2    0    0  0.10629182795E+03  0.64330512366E+02  0.11415942542E+03  0.20998376249E+03  0.12499775432E+03 0.  0.
         24    2    1    2    0    0 -0.31320409663E+03 -0.30621492909E+03  0.64845502982E+03  0.78656510517E+03  0.79538355739E+02 0.  0.
        -11    1    5    5    0    0 -0.55125990837E+02 -0.30029051214E+02  0.13593328504E+03  0.14972800928E+03  0.00000000000E+00 0.  1.
         12    1    5    5    0    0 -0.25807810579E+03 -0.27618587788E+03  0.51252174478E+03  0.63683709589E+03  0.00000000000E+00 0. -1.
        -11    1    3    3    0    0  0.29761436562E+02  0.17538497392E+02 -0.12981185215E+02  0.36903294793E+02  0.00000000000E+00 0.  1.
         12    1    3    3    0    0  0.18498341636E+03  0.16908864263E+03 -0.26911957033E+03  0.36774335688E+03  0.00000000000E+00 0. -1.
          5    1    4    4  501    0  0.76163205444E+01 -0.17962506205E+02  0.71892947906E+02  0.74641449118E+02  0.47000000000E+01 0. -1.
         -5    1    4    4    0  501  0.98675507401E+02  0.82293018571E+02  0.42266477519E+02  0.13534231337E+03  0.47000000000E+01 0. -1.
          1    1    1    2  502    0  0.19166979815E+02  0.10301992250E+02  0.67980313794E+02  0.71378058415E+02  0.00000000000E+00 0. -1.
          1    1    1    2  503    0 -0.26999564054E+02  0.44955284454E+02 -0.83024541128E+03  0.83189987198E+03  0.00000000000E+00 0. -1.
<mgrwt>
<rscale>  0 0.33779915E+02</rscale>
<asrwt>0</asrwt>
<pdfrwt beam="1">  1        2 0.14872956E+00 0.21760151E+02</pdfrwt>
<pdfrwt beam="2">  1        2 0.19016359E+00 0.52439097E+02</pdfrwt>
<totfact> 0.10356551E+02</totfact>
</mgrwt>
</event>
<event>
13    1  0.1595792E-008  0.1199522E+03  0.7546771E-02  0.1328047E+00
          2   -1    0    0  503    0  0.00000000000E+00  0.00000000000E+00  0.25455212900E+04  0.25455212900E+04  0.00000000000E+00 0. -1.
          2   -1    0    0  502    0 -0.00000000000E+00 -0.00000000000E+00 -0.15899946413E+04  0.15899946413E+04  0.00000000000E+00 0. -1.
         24    2    1    2    0    0  0.33797564087E+02 -0.21852048868E+02 -0.21943962638E+03  0.23692776045E+03  0.79757298514E+02 0.  0.
         25    2    1    2    0    0 -0.17120153958E+03  0.64505779916E+02 -0.24575894424E+03  0.33089887845E+03  0.12500258513E+03 0.  0.
         24    2    1    2    0    0 -0.12386260243E+02  0.10608820842E+02  0.23656955681E+03  0.25183371825E+03  0.84788560050E+02 0.  0.
        -11    1    3    3    0    0 -0.15346832545E+01  0.25939106358E+02 -0.10261611949E+03  0.10585490292E+03  0.00000000000E+00 0.  1.
         12    1    3    3    0    0  0.35332247341E+02 -0.47791155226E+02 -0.11682350689E+03  0.13107285753E+03  0.00000000000E+00 0. -1.
        -13    1    5    5    0    0 -0.35520379757E+02  0.15905725629E+02  0.48088240575E+02  0.61864112113E+02  0.00000000000E+00 0.  1.
         14    1    5    5    0    0  0.23134119514E+02 -0.52969047863E+01  0.18848131624E+03  0.18996960614E+03  0.00000000000E+00 0. -1.
          5    1    4    4  501    0 -0.17897429742E+03  0.50147954647E+02 -0.25167885811E+03  0.31290726120E+03  0.47000000000E+01 0. -1.
         -5    1    4    4    0  501  0.77727578433E+01  0.14357825270E+02  0.59199138712E+01  0.17991617248E+02  0.47000000000E+01 0. -1.
          1    1    1    2  502    0  0.12852301733E+03 -0.38129242462E+01 -0.10616484541E+04  0.10694064450E+04  0.00000000000E+00 0. -1.
          1    1    1    2  503    0  0.21267218404E+02 -0.49449627645E+02  0.22458041166E+04  0.22464491292E+04  0.00000000000E+00 0. -1.
<mgrwt>
<rscale>  0 0.80354881E+02</rscale>
<asrwt>0</asrwt>
<pdfrwt beam="1">  1        2 0.37434137E+00 0.53828991E+02</pdfrwt>
<pdfrwt beam="2">  1        2 0.23382274E+00 0.11995222E+03</pdfrwt>
<totfact> 0.11984287E+01</totfact>
</mgrwt>
</event>
<event>
13    1  0.1595792E-008  0.1285700E+03  0.7546771E-02  0.1264817E+00
          2   -1    0    0  503    0  0.00000000000E+00  0.00000000000E+00  0.34051508935E+04  0.34051508935E+04  0.00000000000E+00 0. -1.
          2   -1    0    0  502    0 -0.00000000000E+00 -0.00000000000E+00 -0.81805252262E+03  0.81805252262E+03  0.00000000000E+00 0. -1.
         24    2    1    2    0    0  0.16136103723E+03  0.13496342723E+02 -0.24814709659E+03  0.30709192974E+03  0.80677978175E+02 0.  0.
         25    2    1    2    0    0  0.36414192596E+02 -0.14247162223E+03  0.48665828080E+03  0.52353295539E+03  0.12500526605E+03 0.  0.
         24    2    1    2    0    0 -0.88441407902E+02  0.80206265711E+02  0.77977919555E+03  0.79255222442E+03  0.76344658790E+02 0.  0.
        -13    1    5    5    0    0 -0.46126206396E+01 -0.14002381827E+02  0.58297957357E+02  0.60133142260E+02  0.00000000000E+00 0.  1.
         14    1    5    5    0    0 -0.83828787262E+02  0.94208647538E+02  0.72148123820E+03  0.73241908216E+03  0.00000000000E+00 0. -1.
        -13    1    3    3    0    0 -0.32923594884E+01 -0.31248431954E+01 -0.44274723253E+02  0.44506801673E+02  0.00000000000E+00 0.  1.
         14    1    3    3    0    0  0.16465339671E+03  0.16621185919E+02 -0.20387237334E+03  0.26258512807E+03  0.00000000000E+00 0. -1.
          5    1    4    4  501    0  0.82729310661E+02 -0.96873370850E+02  0.33689844879E+03  0.36020999933E+03  0.47000000000E+01 0.  1.
         -5    1    4    4    0  501 -0.46315118065E+02 -0.45598251380E+02  0.14975983201E+03  0.16332295606E+03  0.47000000000E+01 0.  1.
          1    1    1    2  502    0  0.12942150645E+02  0.89348861417E+02 -0.50964728890E+03  0.51758195233E+03  0.00000000000E+00 0. -1.
          1    1    1    2  503    0 -0.12227597257E+03 -0.40579847622E+02  0.20784552800E+04  0.20824443542E+04  0.00000000000E+00 0. -1.
<mgrwt>
<rscale>  0 0.10773797E+03</rscale>
<asrwt>0</asrwt>
<pdfrwt beam="1">  1        2 0.50075748E+00 0.12856999E+03</pdfrwt>
<pdfrwt beam="2">  1        2 0.12030184E+00 0.90281329E+02</pdfrwt>
<totfact> 0.97899703E+00</totfact>
</mgrwt>
</event>
<event>
13    1  0.1595792E-008  0.1973941E+02  0.7546771E-02  0.1833452E+00
          2   -1    0    0  502    0  0.00000000000E+00  0.00000000000E+00  0.12435874101E+04  0.12435874101E+04  0.00000000000E+00 0. -1.
          2   -1    0    0  503    0 -0.00000000000E+00 -0.00000000000E+00 -0.33415879593E+04  0.33415879593E+04  0.00000000000E+00 0. -1.
         24    2    1    2    0    0  0.67567685916E+03 -0.30022427855E+03 -0.22577060030E+04  0.23763282132E+04  0.55004955231E+02 0.  0.
         25    2    1    2    0    0 -0.83106113109E+03 -0.46545008173E+02 -0.25655156750E+03  0.87992605062E+03  0.12498842503E+03 0.  0.
         24    2    1    2    0    0  0.16454652231E+03  0.37834580172E+03  0.34656646117E+03  0.54485903871E+03  0.80882361337E+02 0.  0.
        -13    1    5    5    0    0  0.72560576308E+02  0.26211572662E+03  0.21559821444E+03  0.34706235959E+03  0.00000000000E+00 0.  1.
         14    1    5    5    0    0  0.91985946003E+02  0.11623007510E+03  0.13096824674E+03  0.19779667913E+03  0.00000000000E+00 0. -1.
        -13    1    3    3    0    0  0.21482881700E+03 -0.11030611530E+03 -0.80871229974E+03  0.84399907786E+03  0.00000000000E+00 0.  1.
         14    1    3    3    0    0  0.46084804217E+03 -0.18991816325E+03 -0.14489937033E+04  0.15323291353E+04  0.00000000000E+00 0. -1.
          5    1    4    4  501    0 -0.69676022424E+03  0.71191262801E+01 -0.21928639883E+03  0.73050263980E+03  0.47000000000E+01 0.  1.
         -5    1    4    4    0  501 -0.13430090685E+03 -0.53664134453E+02 -0.37265168673E+02  0.14942341083E+03  0.47000000000E+01 0.  1.
          1    1    1    2  502    0 -0.39604104353E+01 -0.19337016615E+02  0.42652420582E+03  0.42698068248E+03  0.00000000000E+00 0. -1.
          1    1    1    2  503    0 -0.52018399510E+01 -0.12239498385E+02 -0.35683364562E+03  0.35708138443E+03  0.00000000000E+00 0. -1.
<mgrwt>
<rscale>  0 0.16202322E+02</rscale>
<asrwt>0</asrwt>
<pdfrwt beam="1">  1        2 0.18288050E+00 0.19739413E+02</pdfrwt>
<pdfrwt beam="2">  1        2 0.49141000E+00 0.13299040E+02</pdfrwt>
<totfact> 0.10554936E+01</totfact>
</mgrwt>
</event>
<event>
13    1  0.1595792E-008  0.7845541E+02  0.7546771E-02  0.1347437E+00
          2   -1    0    0  503    0  0.00000000000E+00  0.00000000000E+00  0.20578330117E+04  0.20578330117E+04  0.00000000000E+00 0. -1.
          2   -1    0    0  502    0 -0.00000000000E+00 -0.00000000000E+00 -0.58327579476E+03  0.58327579476E+03  0.00000000000E+00 0. -1.
         24    2    1    2    0    0  0.15421124156E+03 -0.16026211284E+03 -0.36047940565E+03  0.43213700955E+03  0.85626755715E+02 0.  0.
         25    2    1    2    0    0 -0.82460212081E+02 -0.78554183142E+02  0.14681333641E+03  0.22394280186E+03  0.12500310593E+03 0.  0.
         24    2    1    2    0    0  0.16432513579E+02  0.12347206038E+03  0.40456973843E+03  0.43119148635E+03  0.82061242077E+02 0.  0.
        -13    1    5    5    0    0  0.28306111162E+02  0.38046784087E+01  0.89811864857E+02  0.94243740248E+02  0.00000000000E+00 0.  1.
         14    1    5    5    0    0 -0.11873597583E+02  0.11966738197E+03  0.31475787357E+03  0.33694774610E+03  0.00000000000E+00 0. -1.
        -13    1    3    3    0    0  0.16118339165E+03 -0.12979183321E+03 -0.31765572578E+03  0.37911893363E+03  0.00000000000E+00 0.  1.
         14    1    3    3    0    0 -0.69721500909E+01 -0.30470279634E+02 -0.42823679868E+02  0.53018075930E+02  0.00000000000E+00 0. -1.
          5    1    4    4  501    0 -0.24344087534E+02 -0.41544523451E+02 -0.12787025476E+02  0.50041783013E+02  0.47000000000E+01 0.  1.
         -5    1    4    4    0  501 -0.58116124547E+02 -0.37009659691E+02  0.15960036188E+03  0.17390101885E+03  0.47000000000E+01 0.  1.
          1    1    1    2  502    0 -0.30350423167E+02  0.62560940069E+02 -0.12498451856E+03  0.14302499533E+03  0.00000000000E+00 0. -1.
          1    1    1    2  503    0 -0.57833119894E+02  0.52783295535E+02  0.14086380663E+04  0.14108125134E+04  0.00000000000E+00 0. -1.
<mgrwt>
<rscale>  0 0.73860291E+02</rscale>
<asrwt>0</asrwt>
<pdfrwt beam="1">  1        2 0.30262250E+00 0.78455414E+02</pdfrwt>
<pdfrwt beam="2">  1        2 0.85775853E-01 0.69534304E+02</pdfrwt>
<totfact> 0.77437442E+01</totfact>
</mgrwt>
</event>
<event>
13    1  0.1595792E-008  0.6852938E+02  0.7546771E-02  0.1411676E+00
          2   -1    0    0  503    0  0.00000000000E+00  0.00000000000E+00  0.13509521166E+03  0.13509521166E+03  0.00000000000E+00 0. -1.
          2   -1    0    0  502    0 -0.00000000000E+00 -0.00000000000E+00 -0.26135646978E+04  0.26135646978E+04  0.00000000000E+00 0. -1.
         24    2    1    2    0    0 -0.10503509734E+03 -0.42143460859E+01 -0.13188831477E+04  0.13254265789E+04  0.79074182240E+02 0.  0.
         25    2    1    2    0    0  0.60692015128E+02  0.30159944447E+02 -0.19013204466E+03  0.23742349862E+03  0.12500632120E+03 0.  0.
         24    2    1    2    0    0 -0.32036791511E+02  0.10613289953E+02 -0.17315140427E+03  0.19412047094E+03  0.81008336023E+02 0.  0.
        -11    1    5    5    0    0 -0.56109951775E+02  0.19216863761E+02 -0.14155127082E+03  0.15347435229E+03  0.00000000000E+00 0.  1.
         12    1    5    5    0    0  0.24073160264E+02 -0.86035738082E+01 -0.31600133446E+02  0.40646118648E+02  0.00000000000E+00 0. -1.
        -13    1    3    3    0    0 -0.38968948889E+02 -0.22911150924E+02 -0.88413937754E+03  0.88529426674E+03  0.00000000000E+00 0.  1.
         14    1    3    3    0    0 -0.66066148449E+02  0.18696804838E+02 -0.43474377015E+03  0.44013231211E+03  0.00000000000E+00 0. -1.
          5    1    4    4  501    0  0.49763983400E+02 -0.24380670270E+02 -0.21218412196E+02  0.59524634756E+02  0.47000000000E+01 0. -1.
         -5    1    4    4    0  501  0.10928031728E+02  0.54540614717E+02 -0.16891363246E+03  0.17789886386E+03  0.47000000000E+01 0. -1.
          1    1    1    2  502    0  0.34891065838E+02 -0.58883402373E+02 -0.88691959766E+03  0.88955663915E+03  0.00000000000E+00 0. -1.
          1    1    1    2  503    0  0.41488807882E+02  0.22324514060E+02  0.90616708084E+02  0.10213272194E+03  0.00000000000E+00 0. -1.
<mgrwt>
<rscale>  0 0.56821440E+02</rscale>
<asrwt>0</asrwt>
<pdfrwt beam="1">  1        2 0.19866943E-01 0.47113746E+02</pdfrwt>
<pdfrwt beam="2">  1        2 0.38434776E+00 0.68529384E+02</pdfrwt>
<totfact> 0.19576829E+02</totfact>
</mgrwt>
</event>
<event>
13    1  0.1595792E-008  0.4012787E+02  0.7546771E-02  0.1516266E+00
          2   -1    0    0  503    0  0.00000000000E+00  0.00000000000E+00  0.24716201228E+04  0.24716201228E+04  0.00000000000E+00 0. -1.
          2   -1    0    0  502    0 -0.00000000000E+00 -0.00000000000E+00 -0.23825762928E+04  0.23825762928E+04  0.00000000000E+00 0. -1.
         24    2    1    2    0    0  0.18357395294E+03  0.63135162015E+03  0.32925425991E+03  0.74047482319E+03  0.87122509367E+02 0.  0.
         25    2    1    2    0    0  0.24975068555E+02 -0.35443485554E+03  0.11046481244E+03  0.39252356196E+03  0.12499780412E+03 0.  0.
         24    2    1    2    0    0 -0.22079311565E+03 -0.27141476554E+03  0.64998757892E+03  0.74289265680E+03  0.83606649874E+02 0.  0.
        -11    1    5    5    0    0 -0.20324413013E+03 -0.20101706478E+03  0.54257585172E+03  0.61327366781E+03  0.00000000000E+00 0.  1.
         12    1    5    5    0    0 -0.17548985514E+02 -0.70397700757E+02  0.10741172720E+03  0.12961898898E+03  0.00000000000E+00 0. -1.
        -13    1    3    3    0    0  0.15745162843E+03  0.42329871654E+03  0.19825829012E+03  0.49323338119E+03  0.00000000000E+00 0.  1.
         14    1    3    3    0    0  0.26122324513E+02  0.20805290361E+03  0.13099596979E+03  0.24724144200E+03  0.00000000000E+00 0. -1.
          5    1    4    4  501    0  0.43313964941E+02 -0.86699751320E+02  0.73200096491E+02  0.12154542593E+03  0.47000000000E+01 0. -1.
         -5    1    4    4    0  501 -0.18338896387E+02 -0.26773510422E+03  0.37264715949E+02  0.27097813603E+03  0.47000000000E+01 0. -1.
          1    1    1    2  502    0 -0.15720388891E+02 -0.34332465372E+02 -0.19888969522E+04  0.19892553721E+04  0.00000000000E+00 0. -1.
          1    1    1    2  503    0  0.27964483038E+02  0.28830466294E+02  0.98823413092E+03  0.98905000158E+03  0.00000000000E+00 0. -1.
<mgrwt>
<rscale>  0 0.38926147E+02</rscale>
<asrwt>0</asrwt>
<pdfrwt beam="1">  1        2 0.36347355E+00 0.40127869E+02</pdfrwt>
<pdfrwt beam="2">  1        2 0.35037886E+00 0.37760413E+02</pdfrwt>
<totfact> 0.64633818E+00</totfact>
</mgrwt>
</event>
<event>
13    1  0.1595792E-008  0.1436517E+03  0.7546771E-02  0.1449364E+00
          2   -1    0    0  503    0  0.00000000000E+00  0.00000000000E+00  0.15668003477E+04  0.15668003477E+04  0.00000000000E+00 0. -1.
         -3   -1    0    0    0  501 -0.00000000000E+00 -0.00000000000E+00 -0.50324083724E+03  0.50324083724E+03  0.00000000000E+00 0.  1.
         24    2    1    2    0    0 -0.48515099216E+02 -0.10319914150E+03  0.69289716810E+02  0.15500980397E+03  0.78887241130E+02 0.  0.
         25    2    1    2    0    0  0.26799899279E+03  0.20485583338E+03  0.15013176890E+03  0.38981249374E+03  0.12499943854E+03 0.  0.
         24    2    1    2    0    0 -0.61688610271E+02 -0.11155789346E+03  0.62420182979E+02  0.16310412590E+03  0.80349414513E+02 0.  0.
        -11    1    5    5    0    0 -0.76746922064E+02 -0.92427064755E+02  0.68111445658E+02  0.13810148940E+03  0.00000000000E+00 0.  1.
         12    1    5    5    0    0  0.15058311793E+02 -0.19130828706E+02 -0.56912626791E+01  0.25002636500E+02  0.00000000000E+00 0. -1.
        -13    1    3    3    0    0  0.34648990309E+01 -0.35839661702E+01  0.38065502798E+02  0.38390530630E+02  0.00000000000E+00 0.  1.
         14    1    3    3    0    0 -0.51979998247E+02 -0.99615175329E+02  0.31224214012E+02  0.11661927334E+03  0.00000000000E+00 0. -1.
          5    1    4    4  502    0  0.12049489565E+03  0.78706878309E+02  0.13109349038E+03  0.19473414131E+03  0.47000000000E+01 0. -1.
         -5    1    4    4    0  502  0.14750409713E+03  0.12614895507E+03  0.19038278519E+02  0.19507835243E+03  0.47000000000E+01 0. -1.
          1    1    1    2  503    0 -0.14145811304E+03  0.14199503355E+02  0.10669513011E+04  0.10763814856E+04  0.00000000000E+00 0. -1.
         -4    1    1    2    0  501 -0.16337170256E+02 -0.42983017772E+01 -0.28523345933E+03  0.28573327572E+03  0.00000000000E+00 0.  1.
<mgrwt>
<rscale>  0 0.49261853E+02</rscale>
<asrwt>0</asrwt>
<pdfrwt beam="1">  1        2 0.23041181E+00 0.14365173E+03</pdfrwt>
<pdfrwt beam="2">  1       -3 0.74006006E-01 0.16893150E+02</pdfrwt>
<totfact> 0.13832130E+01</totfact>
</mgrwt>
</event>
<event>
13    1  0.1595792E-008  0.6917095E+02  0.7546771E-02  0.1566723E+00
          2   -1    0    0  503    0  0.00000000000E+00  0.00000000000E+00  0.17387490287E+04  0.17387490287E+04  0.00000000000E+00 0. -1.
         -3   -1    0    0    0  501 -0.00000000000E+00 -0.00000000000E+00 -0.14109550743E+04  0.14109550743E+04  0.00000000000E+00 0.  1.
         24    2    1    2    0    0  0.56393288316E+02  0.17236271562E+02 -0.58262451796E+03  0.59104223900E+03  0.80014419512E+02 0.  0.
         25    2    1    2    0    0 -0.29509261291E+02 -0.49492990835E+02  0.41507274084E+02  0.14376353170E+03  0.12499898640E+03 0.  0.
         24    2    1    2    0    0  0.49132586959E+02  0.58973620621E+02  0.10675937201E+04  0.10732549394E+04  0.78917138123E+02 0.  0.
        -13    1    3    3    0    0  0.21408298523E+02 -0.30043275774E+02 -0.30724535633E+03  0.30945213305E+03  0.00000000000E+00 0.  1.
         14    1    3    3    0    0  0.34984989793E+02  0.47279547337E+02 -0.27537916163E+03  0.28159010595E+03  0.00000000000E+00 0. -1.
        -13    1    5    5    0    0  0.12961658808E+02 -0.17244219237E+02  0.12089980414E+03  0.12280932512E+03  0.00000000000E+00 0.  1.
         14    1    5    5    0    0  0.36170928151E+02  0.76217839858E+02  0.94669391601E+03  0.95044561431E+03  0.00000000000E+00 0. -1.
          5    1    4    4  502    0  0.11880513621E+02 -0.79933573390E+02  0.43955694421E+02  0.92112517232E+02  0.47000000000E+01 0.  1.
         -5    1    4    4    0  502 -0.41389774912E+02  0.30440582555E+02 -0.24484203369E+01  0.51651014470E+02  0.47000000000E+01 0.  1.
          1    1    1    2  503    0 -0.81290165316E+01 -0.13527725000E+02  0.56981846597E+03  0.57003698513E+03  0.00000000000E+00 0. -1.
         -4    1    1    2    0  501 -0.67887597453E+02 -0.13189176349E+02 -0.76850098785E+03  0.77160640782E+03  0.00000000000E+00 0.  1.
<mgrwt>
<rscale>  0 0.33040508E+02</rscale>
<asrwt>0</asrwt>
<pdfrwt beam="1">  1        2 0.25569839E+00 0.15782277E+02</pdfrwt>
<pdfrwt beam="2">  1       -3 0.20749339E+00 0.69170955E+02</pdfrwt>
<totfact> 0.13690435E+00</totfact>
</mgrwt>
</event>
<event>
13    1  0.1595792E-008  0.7586949E+02  0.7546771E-02  0.1399197E+00
          2   -1    0    0  502    0  0.00000000000E+00  0.00000000000E+00  0.37113241469E+04  0.37113241469E+04  0.00000000000E+00 0. -1.
          2   -1    0    0  503    0 -0.00000000000E+00 -0.00000000000E+00 -0.86950991830E+03  0.86950991830E+03  0.00000000000E+00 0. -1.
         24    2    1    2    0    0  0.22331629260E+03  0.48655779849E+03 -0.17806667271E+03  0.57460651453E+03  0.10888640320E+03 0.  0.
         25    2    1    2    0    0 -0.37621143756E+03 -0.35641278463E+03  0.74172264921E+03  0.91342207480E+03  0.12498911787E+03 0.  0.
         24    2    1    2    0    0  0.16745384676E+03 -0.10237517084E+03  0.62805032828E+03  0.66295479684E+03  0.80872624521E+02 0.  0.
        -11    1    5    5    0    0  0.98022619656E+02 -0.17789469147E+02  0.24226605050E+03  0.26194987765E+03  0.00000000000E+00 0.  1.
         12    1    5    5    0    0  0.69431227099E+02 -0.84585701693E+02  0.38578427779E+03  0.40100491919E+03  0.00000000000E+00 0. -1.
        -13    1    3    3    0    0  0.60908212184E+02  0.11254508229E+03 -0.92690983618E+02  0.15801210176E+03  0.00000000000E+00 0.  1.
         14    1    3    3    0    0  0.16240808042E+03  0.37401271620E+03 -0.85375689096E+02  0.41659441278E+03  0.00000000000E+00 0. -1.
          5    1    4    4  501    0 -0.18693400674E+03 -0.96167263891E+02  0.26622050424E+03  0.33924609415E+03  0.47000000000E+01 0. -1.
         -5    1    4    4    0  501 -0.18927743082E+03 -0.26024552074E+03  0.47550214497E+03  0.57417598065E+03  0.47000000000E+01 0. -1.
          1    1    1    2  502    0 -0.13652307216E+02 -0.74699900562E+02  0.20378567554E+04  0.20392710992E+04  0.00000000000E+00 0. -1.
          1    1    1    2  503    0 -0.90639457998E+00  0.46930057544E+02 -0.38774883152E+03  0.39057957985E+03  0.00000000000E+00 0. -1.
<mgrwt>
<rscale>  0 0.59675988E+02</rscale>
<asrwt>0</asrwt>
<pdfrwt beam="1">  1        2 0.54578296E+00 0.75869491E+02</pdfrwt>
<pdfrwt beam="2">  1        2 0.12786911E+00 0.46938810E+02</pdfrwt>
<totfact> 0.67438244E+00</totfact>
</mgrwt>
</event>
<event>
13    1  0.1595792E-008  0.1138703E+03  0.7546771E-02  0.1314909E+00
          2   -1    0    0  503    0  0.00000000000E+00  0.00000000000E+00  0.18510406350E+04  0.18510406350E+04  0.00000000000E+00 0. -1.
          2   -1    0    0  502    0 -0.00000000000E+00 -0.00000000000E+00 -0.37936563980E+03  0.37936563980E+03  0.00000000000E+00 0. -1.
         24    2    1    2    0    0  0.10097775451E+03 -0.39353218942E+02  0.32563775941E+03  0.35254613920E+03  0.80645193079E+02 0.  0.
         25    2    1    2    0    0 -0.57784408861E+02  0.20472911442E+03  0.31918527956E+03  0.40343117935E+03  0.12499770232E+03 0.  0.
         24    2    1    2    0    0  0.11874087093E+03 -0.10495927589E+03  0.58541357182E+03  0.61143273001E+03  0.77621448313E+02 0.  0.
        -11    1    3    3    0    0  0.10739741035E+03 -0.20525402131E+02  0.30442423228E+03  0.32346500442E+03  0.00000000000E+00 0.  1.
         12    1    3    3    0    0 -0.64196558475E+01 -0.18827816812E+02  0.21213527129E+02  0.29081134784E+02  0.00000000000E+00 0. -1.
        -13    1    5    5    0    0  0.56370783858E+02 -0.16316754198E+02  0.30910555075E+03  0.31462699065E+03  0.00000000000E+00 0.  1.
         14    1    5    5    0    0  0.62370087072E+02 -0.88642521690E+02  0.27630802107E+03  0.29680573937E+03  0.00000000000E+00 0. -1.
          5    1    4    4  501    0  0.68265994155E+01  0.26460224928E+02 -0.46712493134E+01  0.28118615417E+02  0.47000000000E+01 0. -1.
         -5    1    4    4    0  501 -0.64611008276E+02  0.17826888949E+03  0.32385652887E+03  0.37531256393E+03  0.47000000000E+01 0. -1.
          1    1    1    2  502    0 -0.58587816657E+02 -0.25127984832E+02 -0.30201983810E+03  0.30867447334E+03  0.00000000000E+00 0. -1.
          1    1    1    2  503    0 -0.10334639992E+03 -0.35288634753E+02  0.54345822247E+03  0.55432175285E+03  0.00000000000E+00 0. -1.
<mgrwt>
<rscale>  0 0.85200533E+02</rscale>
<asrwt>0</asrwt>
<pdfrwt beam="1">  1        2 0.27221185E+00 0.11387032E+03</pdfrwt>
<pdfrwt beam="2">  1        2 0.55789065E-01 0.63749101E+02</pdfrwt>
<totfact> 0.14757506E+02</totfact>
</mgrwt>
</event>
<event>
13    1  0.1595792E-008  0.1468622E+03  0.7546771E-02  0.1256551E+00
          2   -1    0    0  503    0  0.00000000000E+00  0.00000000000E+00  0.12206886686E+04  0.12206886686E+04  0.00000000000E+00 0. -1.
          2   -1    0    0  502    0 -0.00000000000E+00 -0.00000000000E+00 -0.24911834519E+04  0.24911834519E+04  0.00000000000E+00 0. -1.
         24    2    1    2    0    0 -0.19636821437E+02  0.57807604750E+02 -0.29648459762E+03  0.31473985600E+03  0.86201719256E+02 0.  0.
         25    2    1    2    0    0 -0.32464420705E+01 -0.11946125111E+02 -0.14708725445E+02  0.12647122578E+03  0.12500150021E+03 0.  0.
         24    2    1    2    0    0  0.17817194253E+03 -0.12476775950E+03  0.39182802892E+03  0.45525008682E+03  0.80069984289E+02 0.  0.
        -13    1    5    5    0    0  0.42594266084E+02 -0.74354713401E+01  0.33968314756E+02  0.54985490310E+02  0.00000000000E+00 0.  1.
         14    1    5    5    0    0  0.13557767645E+03 -0.11733228816E+03  0.35785971416E+03  0.40026459651E+03  0.00000000000E+00 0. -1.
        -13    1    3    3    0    0 -0.57737295712E+01 -0.22521035234E+02 -0.83918090693E+02  0.87079153227E+02  0.00000000000E+00 0.  1.
         14    1    3    3    0    0 -0.13863091866E+02  0.80328639984E+02 -0.21256650693E+03  0.22766070277E+03  0.00000000000E+00 0. -1.
          5    1    4    4  501    0 -0.48038282165E+01 -0.68025649452E+02 -0.29410265885E+00  0.68357459324E+02  0.47000000000E+01 0.  1.
         -5    1    4    4    0  501  0.15573861459E+01  0.56079524340E+02 -0.14414622786E+02  0.58113766458E+02  0.47000000000E+01 0.  1.
          1    1    1    2  502    0 -0.81989413606E+02  0.12334333056E+03 -0.20781167031E+04  0.20833878354E+04  0.00000000000E+00 0. -1.
          1    1    1    2  503    0 -0.73299265417E+02 -0.44437050694E+02  0.72698721394E+03  0.73202311645E+03  0.00000000000E+00 0. -1.
<mgrwt>
<rscale>  0 0.11219899E+03</rscale>
<asrwt>0</asrwt>
<pdfrwt beam="1">  1        2 0.17951304E+00 0.85717173E+02</pdfrwt>
<pdfrwt beam="2">  1        2 0.36635050E+00 0.14686221E+03</pdfrwt>
<totfact> 0.17574323E+01</totfact>
</mgrwt>
</event>
<event>
13    1  0.1595792E-008  0.5229505E+02  0.7546771E-02  0.1492596E+00
          2   -1    0    0  502    0  0.00000000000E+00  0.00000000000E+00  0.13688381973E+04  0.13688381973E+04  0.00000000000E+00 0. -1.
          2   -1    0    0  503    0 -0.00000000000E+00 -0.00000000000E+00 -0.26710512610E+04  0.26710512610E+04  0.00000000000E+00 0. -1.
         24    2    1    2    0    0 -0.51434283862E+03  0.15377374757E+03 -0.20030767840E+04  0.20757493933E+04  0.90686381927E+02 0.  0.
         25    2    1    2    0    0  0.43127960183E+02  0.27417610820E+03 -0.35294865923E+03  0.46607973533E+03  0.12500001752E+03 0.  0.
         24    2    1    2    0    0  0.46046050741E+03 -0.48086175462E+03  0.77268535046E+03  0.10232436386E+04  0.82054781713E+02 0.  0.
        -11    1    5    5    0    0  0.25943901400E+03 -0.32542050899E+03  0.46010533582E+03  0.62040634241E+03  0.00000000000E+00 0.  1.
         12    1    5    5    0    0  0.20102149340E+03 -0.15544124563E+03  0.31258001464E+03  0.40283729619E+03  0.00000000000E+00 0. -1.
        -13    1    3    3    0    0 -0.15947151562E+03  0.48190133993E+01 -0.57647387825E+03  0.59814422967E+03  0.00000000000E+00 0.  1.
         14    1    3    3    0    0 -0.35487132300E+03  0.14895473417E+03 -0.14266029058E+04  0.14776051636E+04  0.00000000000E+00 0. -1.
          5    1    4    4  501    0  0.61215705168E+02  0.69410810495E+02 -0.69156219919E+02  0.11562826612E+03  0.47000000000E+01 0.  1.
         -5    1    4    4    0  501 -0.18087744985E+02  0.20476529770E+03 -0.28379243931E+03  0.35045146921E+03  0.47000000000E+01 0.  1.
          1    1    1    2  502    0 -0.22800081438E+02  0.47070394321E+02  0.37309579859E+03  0.37674386612E+03  0.00000000000E+00 0. -1.
          1    1    1    2  503    0  0.33554452468E+02  0.58415045229E+01 -0.91968769440E+02  0.98072825022E+02  0.00000000000E+00 0. -1.
<mgrwt>
<rscale>  0 0.42203365E+02</rscale>
<asrwt>0</asrwt>
<pdfrwt beam="1">  1        2 0.20129974E+00 0.52295050E+02</pdfrwt>
<pdfrwt beam="2">  1        2 0.39280165E+00 0.34059132E+02</pdfrwt>
<totfact> 0.15295618E+01</totfact>
</mgrwt>
</event>
<event>
13    1  0.1595792E-008  0.7120521E+02  0.7546771E-02  0.1444153E+00
          2   -1    0    0  503    0  0.00000000000E+00  0.00000000000E+00  0.19659852495E+04  0.19659852495E+04  0.00000000000E+00 0. -1.
          2   -1    0    0  502    0 -0.00000000000E+00 -0.00000000000E+00 -0.22055190044E+04  0.22055190044E+04  0.00000000000E+00 0. -1.
         24    2    1    2    0    0  0.10427145348E+01  0.13997049187E+02 -0.61249355491E+02  0.10248609678E+03  0.80962410078E+02 0.  0.
         25    2    1    2    0    0  0.69166545771E+02  0.25416180392E+02 -0.43569334972E+02  0.15149843451E+03  0.12499398158E+03 0.  0.
         24    2    1    2    0    0 -0.10077661225E+03  0.14748840968E+02  0.55107296784E+03  0.56608194878E+03  0.79961884460E+02 0.  0.
        -11    1    5    5    0    0 -0.76651127378E+02  0.43269212047E+02  0.31479647566E+03  0.32687067951E+03  0.00000000000E+00 0.  1.
         12    1    5    5    0    0 -0.24125484871E+02 -0.28520371079E+02  0.23627649218E+03  0.23921126927E+03  0.00000000000E+00 0. -1.
        -13    1    3    3    0    0  0.54204176604E+01  0.45605722808E+02 -0.19393363128E+02  0.49853439338E+02  0.00000000000E+00 0.  1.
         14    1    3    3    0    0 -0.43777031256E+01 -0.31608673621E+02 -0.41855992363E+02  0.52632657442E+02  0.00000000000E+00 0. -1.
          5    1    4    4  501    0  0.48605186048E+02 -0.45795500863E+02 -0.33308559000E+01  0.67028923690E+02  0.47000000000E+01 0. -1.
         -5    1    4    4    0  501  0.20561359723E+02  0.71211681255E+02 -0.40238479072E+02  0.84469510824E+02  0.47000000000E+01 0. -1.
          1    1    1    2  502    0 -0.30688528863E+02 -0.17687428401E+02 -0.20175039690E+04  0.20178148815E+04  0.00000000000E+00 0. -1.
          1    1    1    2  503    0  0.61255880806E+02 -0.36474642146E+02  0.13317159368E+04  0.13336228923E+04  0.00000000000E+00 0. -1.
<mgrwt>
<rscale>  0 0.50220944E+02</rscale>
<asrwt>0</asrwt>
<pdfrwt beam="1">  1        2 0.28911548E+00 0.71205205E+02</pdfrwt>
<pdfrwt beam="2">  1        2 0.32434103E+00 0.35420770E+02</pdfrwt>
<totfact> 0.12702850E+01</totfact>
</mgrwt>
</event>
<event>
13    1  0.1595792E-008  0.1141709E+03  0.7546771E-02  0.1289908E+00
          2   -1    0    0  503    0  0.00000000000E+00  0.00000000000E+00  0.75637492586E+03  0.75637492586E+03  0.00000000000E+00 0. -1.
          2   -1    0    0  502    0 -0.00000000000E+00 -0.00000000000E+00 -0.19777811338E+04  0.19777811338E+04  0.00000000000E+00 0. -1.
         24    2    1    2    0    0 -0.48529650733E+00  0.84639117879E+02 -0.15786481867E+03  0.19514829433E+03  0.77443786192E+02 0.  0.
         25    2    1    2    0    0  0.11902908855E+03 -0.29480546779E+02 -0.86933885060E+02  0.19550016718E+03  0.12500315370E+03 0.  0.
         24    2    1    2    0    0 -0.54070018536E+02 -0.44653338279E+02  0.72285503824E+02  0.12988008332E+03  0.82013135876E+02 0.  0.
        -11    1    3    3    0    0 -0.20337612204E+02  0.91411862483E+02 -0.13205645830E+03  0.16189087452E+03  0.00000000000E+00 0.  1.
         12    1    3    3    0    0  0.19852315696E+02 -0.67727446040E+01 -0.25808360361E+02  0.33257419812E+02  0.00000000000E+00 0. -1.
        -13    1    5    5    0    0 -0.16841047749E+02  0.20254424569E+02  0.41096202730E+02  0.48813527661E+02  0.00000000000E+00 0.  1.
         14    1    5    5    0    0 -0.37228970787E+02 -0.64907762848E+02  0.31189301094E+02  0.81066555659E+02  0.00000000000E+00 0. -1.
          5    1    4    4  501    0  0.12736963614E+03 -0.93397662399E+01 -0.25733145147E+02  0.13036310906E+03  0.47000000000E+01 0.  1.
         -5    1    4    4    0  501 -0.83405475904E+01 -0.20140780539E+02 -0.61200739913E+02  0.65137058121E+02  0.47000000000E+01 0.  1.
          1    1    1    2  502    0  0.30333222540E+02 -0.74017369631E+02 -0.16246766053E+04  0.16266446284E+04  0.00000000000E+00 0. -1.
          1    1    1    2  503    0 -0.94806996045E+02  0.63512136810E+02  0.57578359727E+03  0.58698288638E+03  0.00000000000E+00 0. -1.
<mgrwt>
<rscale>  0 0.95565301E+02</rscale>
<asrwt>0</asrwt>
<pdfrwt beam="1">  1        2 0.11123161E+00 0.11417090E+03</pdfrwt>
<pdfrwt beam="2">  1        2 0.29085016E+00 0.79991721E+02</pdfrwt>
<totfact> 0.62032904E+01</totfact>
</mgrwt>
</event>
<event>
13    1  0.1595792E-008  0.5591813E+02  0.7546771E-02  0.1563494E+00
          2   -1    0    0  503    0  0.00000000000E+00  0.00000000000E+00  0.14848531778E+04  0.14848531778E+04  0.00000000000E+00 0. -1.
          2   -1    0    0  502    0 -0.00000000000E+00 -0.00000000000E+00 -0.14561208536E+04  0.14561208536E+04  0.00000000000E+00 0. -1.
         24    2    1    2    0    0 -0.33324040118E+02  0.35700365270E+02 -0.34653642987E+03  0.35918175858E+03  0.80864273574E+02 0.  0.
         25    2    1    2    0    0 -0.13957595971E+03 -0.32865128755E+02 -0.49594772576E+03  0.53118075402E+03  0.12500912583E+03 0.  0.
         24    2    1    2    0    0  0.15103679147E+03  0.25855724570E+02  0.11766173267E+04  0.11891640278E+04  0.78753543390E+02 0.  0.
        -11    1    5    5    0    0  0.55610946260E+02 -0.16134216543E+02  0.24589442127E+03  0.25262018269E+03  0.00000000000E+00 0.  1.
         12    1    5    5    0    0  0.95425845205E+02  0.41989941114E+02  0.93072290547E+03  0.93654384514E+03  0.00000000000E+00 0. -1.
        -11    1    3    3    0    0 -0.30784820699E+02  0.59008370446E+02 -0.29715077121E+03  0.30451317508E+03  0.00000000000E+00 0.  1.
         12    1    3    3    0    0 -0.25392194180E+01 -0.23308005176E+02 -0.49385658659E+02  0.54668583499E+02  0.00000000000E+00 0. -1.
          5    1    4    4  501    0 -0.53455639967E+01 -0.42615835341E+02 -0.21907902806E+03  0.22329889165E+03  0.47000000000E+01 0.  1.
         -5    1    4    4    0  501 -0.13423039571E+03  0.97507065867E+01 -0.27686869770E+03  0.30788186237E+03  0.47000000000E+01 0.  1.
          1    1    1    2  502    0 -0.11343765686E+02  0.16379109681E+02 -0.58043338979E+03  0.58077523728E+03  0.00000000000E+00 0. -1.
          1    1    1    2  503    0  0.33206974046E+02 -0.45070070766E+02  0.27503254278E+03  0.28067225370E+03  0.00000000000E+00 0. -1.
<mgrwt>
<rscale>  0 0.33378127E+02</rscale>
<asrwt>0</asrwt>
<pdfrwt beam="1">  1        2 0.21836076E+00 0.55918126E+02</pdfrwt>
<pdfrwt beam="2">  1        2 0.21413542E+00 0.19923761E+02</pdfrwt>
<totfact> 0.50990401E+01</totfact>
</mgrwt>
</event>
<event>
13    1  0.1595792E-008  0.2258712E+02  0.7546771E-02  0.1763703E+00
          2   -1    0    0  503    0  0.00000000000E+00  0.00000000000E+00  0.63544754049E+03  0.63544754049E+03  0.00000000000E+00 0. -1.
         -1   -1    0    0    0  501 -0.00000000000E+00 -0.00000000000E+00 -0.12324067828E+04  0.12324067828E+04  0.00000000000E+00 0.  1.
         24    2    1    2    0    0 -0.42812551840E+02 -0.38369217994E+02 -0.54366112491E+03  0.55253963891E+03  0.80171830150E+02 0.  0.
         25    2    1    2    0    0 -0.33789353658E+02  0.34965054068E+02 -0.63592570559E+01  0.13428157819E+03  0.12500730645E+03 0.  0.
         24    2    1    2    0    0  0.50054143605E+02  0.23718524833E+02  0.86316378190E+02  0.12471321042E+03  0.70956902389E+02 0.  0.
        -13    1    5    5    0    0  0.22307449820E+02 -0.17048795494E+02  0.34555184665E+01  0.28288237010E+02  0.00000000000E+00 0.  1.
         14    1    5    5    0    0  0.27746693785E+02  0.40767320327E+02  0.82860859723E+02  0.96424973408E+02  0.00000000000E+00 0. -1.
        -13    1    3    3    0    0 -0.65274044708E+02 -0.26978887139E+02 -0.33503361589E+03  0.34239755408E+03  0.00000000000E+00 0.  1.
         14    1    3    3    0    0  0.22461492868E+02 -0.11390330855E+02 -0.20862750902E+03  0.21014208484E+03  0.00000000000E+00 0. -1.
          5    1    4    4  502    0 -0.58658395853E+02 -0.20071739041E+02  0.23846052504E+02  0.66591338267E+02  0.47000000000E+01 0.  1.
         -5    1    4    4    0  502  0.24869042195E+02  0.55036793109E+02 -0.30205309560E+02  0.67690239925E+02  0.47000000000E+01 0.  1.
          1    1    1    2  503    0  0.22071184539E+02 -0.47844470961E+01  0.46114614826E+03  0.46169881760E+03  0.00000000000E+00 0. -1.
         -2    1    1    2    0  501  0.44765773543E+01 -0.15529913811E+02 -0.59440138683E+03  0.59462107820E+03  0.00000000000E+00 0.  1.
<mgrwt>
<rscale>  0 0.19106504E+02</rscale>
<asrwt>0</asrwt>
<pdfrwt beam="1">  1        2 0.93448168E-01 0.22587123E+02</pdfrwt>
<pdfrwt beam="2">  1       -1 0.18123629E+00 0.16162239E+02</pdfrwt>
<totfact> 0.17107317E+01</totfact>
</mgrwt>
</event>
<event>
13    1  0.1595792E-008  0.3046973E+02  0.7546771E-02  0.1626310E+00
          2   -1    0    0  503    0  0.00000000000E+00  0.00000000000E+00  0.21878438986E+04  0.21878438986E+04  0.00000000000E+00 0. -1.
         -1   -1    0    0    0  501 -0.00000000000E+00 -0.00000000000E+00 -0.59172337340E+03  0.59172337340E+03  0.00000000000E+00 0.  1.
         24    2    1    2    0    0  0.35785025922E+02  0.83785961488E+02 -0.34452800982E+03  0.36574686179E+03  0.82283424443E+02 0.  0.
         25    2    1    2    0    0 -0.63580773798E+02 -0.16097855475E+03  0.81614758198E+03  0.84361078896E+03  0.12500271112E+03 0.  0.
         24    2    1    2    0    0  0.14063436648E+02  0.76133152124E+02  0.62844935286E+03  0.63815152794E+03  0.79339437859E+02 0.  0.
        -11    1    5    5    0    0 -0.27521387984E+02  0.62443891374E+01  0.12256078108E+03  0.12576789833E+03  0.00000000000E+00 0.  1.
         12    1    5    5    0    0  0.41584824632E+02  0.69888762987E+02  0.50588857178E+03  0.51238362961E+03  0.00000000000E+00 0. -1.
        -13    1    3    3    0    0  0.31548428380E+02 -0.47955331470E+01 -0.12437122584E+03  0.12839977526E+03  0.00000000000E+00 0.  1.
         14    1    3    3    0    0  0.42365975421E+01  0.88581494635E+02 -0.22015678398E+03  0.23734708653E+03  0.00000000000E+00 0. -1.
          5    1    4    4  502    0  0.19968844109E+02 -0.82247504452E+02  0.50210083734E+03  0.50920599719E+03  0.47000000000E+01 0. -1.
         -5    1    4    4    0  502 -0.83549617907E+02 -0.78731050296E+02  0.31404674465E+03  0.33440479177E+03  0.47000000000E+01 0. -1.
          1    1    1    2  503    0  0.19803183437E+02 -0.23182457507E+02  0.71301179715E+03  0.71366337673E+03  0.00000000000E+00 0. -1.
         -2    1    1    2    0  501 -0.60708722092E+01  0.24241898643E+02 -0.21696019699E+03  0.21839471655E+03  0.00000000000E+00 0.  1.
<mgrwt>
<rscale>  0 0.27594453E+02</rscale>
<asrwt>0</asrwt>
<pdfrwt beam="1">  1        2 0.32174175E+00 0.30469731E+02</pdfrwt>
<pdfrwt beam="2">  1       -1 0.87018144E-01 0.24990501E+02</pdfrwt>
<totfact> 0.14680348E+01</totfact>
</mgrwt>
</event>
<event>
13    1  0.1595792E-008  0.1136700E+03  0.7546771E-02  0.1351799E+00
          2   -1    0    0  502    0  0.00000000000E+00  0.00000000000E+00  0.57564160766E+03  0.57564160766E+03  0.00000000000E+00 0. -1.
          2   -1    0    0  503    0 -0.00000000000E+00 -0.00000000000E+00 -0.50774690900E+03  0.50774690900E+03  0.00000000000E+00 0. -1.
         24    2    1    2    0    0  0.64554481615E+02 -0.25105074763E+02 -0.75797928039E+02  0.13049312190E+03  0.80533117984E+02 0.  0.
         25    2    1    2    0    0 -0.13777172155E+03  0.50745472440E+02 -0.92503886465E+02  0.21386295250E+03  0.12499697280E+03 0.  0.
         24    2    1    2    0    0  0.18605920247E+02  0.54015749111E+02  0.99275207278E+02  0.14271476085E+03  0.85135508239E+02 0.  0.
        -11    1    3    3    0    0  0.34984724667E+02  0.23986594300E+02 -0.10667772562E+02  0.43738873300E+02  0.00000000000E+00 0.  1.
         12    1    3    3    0    0  0.29569756948E+02 -0.49091669063E+02 -0.65130155477E+02  0.86754248598E+02  0.00000000000E+00 0. -1.
        -13    1    5    5    0    0 -0.15321336701E+02  0.39337605749E+02  0.63296901721E+01  0.42687885425E+02  0.00000000000E+00 0.  1.
         14    1    5    5    0    0  0.33927256948E+02  0.14678143362E+02  0.92945517106E+02  0.10002687542E+03  0.00000000000E+00 0. -1.
          5    1    4    4  501    0 -0.41818067375E+02  0.68539736960E+02 -0.16481691477E+01  0.80444097130E+02  0.47000000000E+01 0.  1.
         -5    1    4    4    0  501 -0.95953654180E+02 -0.17794264519E+02 -0.90855717318E+02  0.13341885538E+03  0.47000000000E+01 0.  1.
          1    1    1    2  502    0  0.10036658399E+03 -0.86325569007E+02  0.35213251098E+03  0.37619524231E+03  0.00000000000E+00 0. -1.
          1    1    1    2  503    0 -0.45755264294E+02  0.66694222189E+01 -0.21521120508E+03  0.22012243910E+03  0.00000000000E+00 0. -1.
<mgrwt>
<rscale>  0 0.72498024E+02</rscale>
<asrwt>0</asrwt>
<pdfrwt beam="1">  1        2 0.84653178E-01 0.11367001E+03</pdfrwt>
<pdfrwt beam="2">  1        2 0.74668663E-01 0.46238787E+02</pdfrwt>
<totfact> 0.57998067E+02</totfact>
</mgrwt>
</event>
<event>
13    1  0.1595792E-008  0.2664125E+02  0.7546771E-02  0.1644009E+00
          2   -1    0    0  503    0  0.00000000000E+00  0.00000000000E+00  0.14097014084E+04  0.14097014084E+04  0.00000000000E+00 0. -1.
          2   -1    0    0  502    0 -0.00000000000E+00 -0.00000000000E+00 -0.13437631064E+04  0.13437631064E+04  0.00000000000E+00 0. -1.
         24    2    1    2    0    0 -0.60012098192E+02 -0.38684539767E+02 -0.10589080027E+02  0.10837571129E+03  0.80840711494E+02 0.  0.
         25    2    1    2    0    0  0.18758670213E+03 -0.50960725101E+02  0.17042695477E+02  0.23173473243E+03  0.12499906572E+03 0.  0.
         24    2    1    2    0    0 -0.85872240996E+02  0.10683149330E+03  0.10616459817E+04  0.10734406275E+04  0.79972373138E+02 0.  0.
        -13    1    3    3    0    0 -0.68556515068E+02 -0.26348907934E+02 -0.33709867994E+02  0.80812226227E+02  0.00000000000E+00 0.  1.
         14    1    3    3    0    0  0.85444168757E+01 -0.12335631833E+02  0.23120787967E+02  0.27563485061E+02  0.00000000000E+00 0. -1.
        -13    1    5    5    0    0 -0.15147296354E+02  0.46395822662E+02  0.16742783526E+03  0.17439636741E+03  0.00000000000E+00 0.  1.
         14    1    5    5    0    0 -0.70724944643E+02  0.60435670635E+02  0.89421814646E+03  0.89904426005E+03  0.00000000000E+00 0. -1.
          5    1    4    4  501    0  0.17689849347E+03 -0.48970484717E+02  0.55241511233E+02  0.19174175322E+03  0.47000000000E+01 0.  1.
         -5    1    4    4    0  501  0.10688208655E+02 -0.19902403839E+01 -0.38198815756E+02  0.39992979211E+02  0.47000000000E+01 0.  1.
          1    1    1    2  502    0 -0.26395288580E+02  0.36006360302E+01 -0.11698983266E+04  0.11702015939E+04  0.00000000000E+00 0. -1.
          1    1    1    2  503    0 -0.15307074356E+02 -0.20786864459E+02  0.16773703133E+03  0.16971184973E+03  0.00000000000E+00 0. -1.
<mgrwt>
<rscale>  0 0.26224735E+02</rscale>
<asrwt>0</asrwt>
<pdfrwt beam="1">  1        2 0.20730903E+00 0.25814730E+02</pdfrwt>
<pdfrwt beam="2">  1        2 0.19761222E+00 0.26641252E+02</pdfrwt>
<totfact> 0.64880110E+01</totfact>
</mgrwt>
</event>
<event>
13    1  0.1595792E-008  0.9851767E+02  0.7546771E-02  0.1327885E+00
          2   -1    0    0  503    0  0.00000000000E+00  0.00000000000E+00  0.24517049949E+04  0.24517049949E+04  0.00000000000E+00 0. -1.
          2   -1    0    0  502    0 -0.00000000000E+00 -0.00000000000E+00 -0.13179517289E+04  0.13179517289E+04  0.00000000000E+00 0. -1.
         24    2    1    2    0    0 -0.46672342363E+02 -0.98629175338E+01 -0.32005070324E+03  0.33612841747E+03  0.90963045808E+02 0.  0.
         25    2    1    2    0    0  0.19643353908E+03  0.85557490263E+02  0.18295906320E+03  0.30823520215E+03  0.12501480562E+03 0.  0.
         24    2    1    2    0    0 -0.39462921532E+01 -0.25179749949E+02  0.43825808596E+03  0.44650063553E+03  0.81505058670E+02 0.  0.
        -11    1    3    3    0    0 -0.77936964591E+01 -0.33158439740E+02 -0.40464497694E+02  0.52892337858E+02  0.00000000000E+00 0.  1.
         12    1    3    3    0    0 -0.38878645904E+02  0.23295522207E+02 -0.27958620554E+03  0.28323607961E+03  0.00000000000E+00 0. -1.
        -11    1    5    5    0    0  0.23176114769E+02  0.19156851808E+02  0.10524630173E+03  0.10945730353E+03  0.00000000000E+00 0.  1.
         12    1    5    5    0    0 -0.27122406922E+02 -0.44336601756E+02  0.33301178422E+03  0.33704333200E+03  0.00000000000E+00 0. -1.
          5    1    4    4  501    0  0.10827559531E+03  0.52444045038E+02  0.17659304896E+03  0.21373155438E+03  0.47000000000E+01 0. -1.
         -5    1    4    4    0  501  0.88157943771E+02  0.33113445224E+02  0.63660142477E+01  0.94503647771E+02  0.47000000000E+01 0. -1.
          1    1    1    2  502    0 -0.65547983786E+02  0.33667739878E+01 -0.92060275282E+03  0.92293948980E+03  0.00000000000E+00 0. -1.
          1    1    1    2  503    0 -0.80266920776E+02 -0.53881596768E+02  0.17531895728E+04  0.17558529788E+04  0.00000000000E+00 0. -1.
<mgrwt>
<rscale>  0 0.80412357E+02</rscale>
<asrwt>0</asrwt>
<pdfrwt beam="1">  1        2 0.36054485E+00 0.98517669E+02</pdfrwt>
<pdfrwt beam="2">  1        2 0.19381643E+00 0.65634391E+02</pdfrwt>
<totfact> 0.17542089E+01</totfact>
</mgrwt>
</event>
<event>
13    1  0.1595792E-008  0.1626159E+03  0.7546771E-02  0.1358630E+00
          2   -1    0    0  502    0  0.00000000000E+00  0.00000000000E+00  0.13385181353E+04  0.13385181353E+04  0.00000000000E+00 0. -1.
          2   -1    0    0  503    0 -0.00000000000E+00 -0.00000000000E+00 -0.24835167592E+04  0.24835167592E+04  0.00000000000E+00 0. -1.
         24    2    1    2    0    0  0.12099047887E+03  0.13306302291E+03 -0.27353765970E+03  0.33642036140E+03  0.77532859149E+02 0.  0.
         25    2    1    2    0    0 -0.25397301486E+03  0.15898581248E+03 -0.57744534637E+01  0.32470936849E+03  0.12499619524E+03 0.  0.
         24    2    1    2    0    0  0.13679514873E+02 -0.23008024140E+03 -0.65672798087E+01  0.24063569993E+03  0.68835777802E+02 0.  0.
        -11    1    5    5    0    0 -0.13076722017E+02 -0.88181811367E+01 -0.81558488195E+01  0.17756093242E+02  0.00000000000E+00 0.  1.
         12    1    5    5    0    0  0.26756236890E+02 -0.22126206026E+03  0.15885690109E+01  0.22287960668E+03  0.00000000000E+00 0. -1.
        -11    1    3    3    0    0  0.68648709471E+02  0.11124509004E+03 -0.14106732449E+03  0.19232291962E+03  0.00000000000E+00 0.  1.
         12    1    3    3    0    0  0.52341769396E+02  0.21817932869E+02 -0.13247033521E+03  0.14409744179E+03  0.00000000000E+00 0. -1.
          5    1    4    4  501    0 -0.15915833173E+03  0.16206234107E+03  0.14245792495E+02  0.22764140563E+03  0.47000000000E+01 0.  1.
         -5    1    4    4    0  501 -0.94814683134E+02 -0.30765285934E+01 -0.20020245959E+02  0.97067962862E+02  0.47000000000E+01 0.  1.
          1    1    1    2  502    0 -0.30416431218E+02  0.23276481645E+01  0.10268357191E+04  0.10272887478E+04  0.00000000000E+00 0. -1.
          1    1    1    2  503    0  0.14971945234E+03 -0.64296242155E+02 -0.18859549501E+04  0.18929807170E+04  0.00000000000E+00 0. -1.
<mgrwt>
<rscale>  0 0.70431937E+02</rscale>
<asrwt>0</asrwt>
<pdfrwt beam="1">  1        2 0.19684090E+00 0.30505364E+02</pdfrwt>
<pdfrwt beam="2">  1        2 0.36522305E+00 0.16261592E+03</pdfrwt>
<totfact> 0.16414349E+01</totfact>
</mgrwt>
</event>
<event>
13    1  0.1595792E-008  0.8725406E+02  0.7546771E-02  0.1377138E+00
          2   -1    0    0  503    0  0.00000000000E+00  0.00000000000E+00  0.66089864033E+03  0.66089864033E+03  0.00000000000E+00 0. -1.
          2   -1    0    0  502    0 -0.00000000000E+00 -0.00000000000E+00 -0.17956054177E+04  0.17956054177E+04  0.00000000000E+00 0. -1.
         24    2    1    2    0    0 -0.41443627216E+02  0.37840193709E+02 -0.21332722049E+03  0.23275578562E+03  0.74278518050E+02 0.  0.
         25    2    1    2    0    0 -0.95013653929E+02 -0.21664730882E+03 -0.61188156697E+03  0.66782304194E+03  0.12499964997E+03 0.  0.
         24    2    1    2    0    0  0.86134724739E+01  0.13287441058E+03 -0.91544372843E+02  0.18036646895E+03  0.80136695897E+02 0.  0.
        -11    1    3    3    0    0 -0.27613175163E+02  0.41765238126E+02 -0.57403804663E+02  0.76170987574E+02  0.00000000000E+00 0.  1.
         12    1    3    3    0    0 -0.13830452053E+02 -0.39250444174E+01 -0.15592341582E+03  0.15658479805E+03  0.00000000000E+00 0. -1.
        -11    1    5    5    0    0  0.35746263285E+02  0.31002991772E+02 -0.13521784580E+02  0.49211985287E+02  0.00000000000E+00 0.  1.
         12    1    5    5    0    0 -0.27132790811E+02  0.10187141881E+03 -0.78022588263E+02  0.13115448367E+03  0.00000000000E+00 0. -1.
          5    1    4    4  501    0 -0.69670405234E+02 -0.30953101188E+02 -0.13029891043E+03  0.15103627345E+03  0.47000000000E+01 0.  1.
         -5    1    4    4    0  501 -0.25343248696E+02 -0.18569420764E+03 -0.48158265654E+03  0.51678676849E+03  0.47000000000E+01 0.  1.
          1    1    1    2  502    0  0.45738523442E+02  0.16878111061E+02 -0.79272670773E+03  0.79422447476E+03  0.00000000000E+00 0. -1.
          1    1    1    2  503    0  0.82105285230E+02  0.29054593475E+02  0.57477309064E+03  0.58133428678E+03  0.00000000000E+00 0. -1.
<mgrwt>
<rscale>  0 0.65222100E+02</rscale>
<asrwt>0</asrwt>
<pdfrwt beam="1">  1        2 0.97190977E-01 0.87254059E+02</pdfrwt>
<pdfrwt beam="2">  1        2 0.26405962E+00 0.48753289E+02</pdfrwt>
<totfact> 0.93713795E+01</totfact>
</mgrwt>
</event>
<event>
13    1  0.1595792E-008  0.4663941E+02  0.7546771E-02  0.1551244E+00
          2   -1    0    0  502    0  0.00000000000E+00  0.00000000000E+00  0.12718718431E+04  0.12718718431E+04  0.00000000000E+00 0. -1.
          2   -1    0    0  503    0 -0.00000000000E+00 -0.00000000000E+00 -0.22711719601E+04  0.22711719601E+04  0.00000000000E+00 0. -1.
         24    2    1    2    0    0  0.13795687842E+01 -0.22915300047E+02 -0.15071889199E+03  0.17276866101E+03  0.81276144345E+02 0.  0.
         25    2    1    2    0    0 -0.55663599904E+02 -0.22279442777E+02  0.16462329311E+02  0.13961360959E+03  0.12500456700E+03 0.  0.
         24    2    1    2    0    0 -0.13975229790E+02  0.39424945702E+02  0.57356086172E+03  0.58001989007E+03  0.75507465767E+02 0.  0.
        -11    1    5    5    0    0  0.28636921780E+01 -0.10583164489E+02  0.13108968254E+02  0.17089445637E+02  0.00000000000E+00 0.  1.
         12    1    5    5    0    0 -0.16838921968E+02  0.50008110191E+02  0.56045189347E+03  0.56293044444E+03  0.00000000000E+00 0. -1.
        -11    1    3    3    0    0  0.35045756016E+02  0.88966989459E+01 -0.84965804832E+02  0.92339288808E+02  0.00000000000E+00 0.  1.
         12    1    3    3    0    0 -0.33666187231E+02 -0.31811998993E+02 -0.65753087158E+02  0.80429372206E+02  0.00000000000E+00 0. -1.
          5    1    4    4  501    0 -0.70413709394E+02 -0.56707886500E+02  0.35613606199E+02  0.97284602114E+02  0.47000000000E+01 0.  1.
         -5    1    4    4    0  501  0.14750109490E+02  0.34428443723E+02 -0.19151276888E+02  0.42329007472E+02  0.47000000000E+01 0.  1.
          1    1    1    2  502    0  0.22217343315E+02  0.13161529693E+02  0.60547748789E+03  0.60602790740E+03  0.00000000000E+00 0. -1.
          1    1    1    2  503    0  0.46041917596E+02 -0.73917325705E+01 -0.20440819039E+04  0.20446137351E+04  0.00000000000E+00 0. -1.
<mgrwt>
<rscale>  0 0.34704144E+02</rscale>
<asrwt>0</asrwt>
<pdfrwt beam="1">  1        2 0.18703998E+00 0.25823172E+02</pdfrwt>
<pdfrwt beam="2">  1        2 0.33399588E+00 0.46639415E+02</pdfrwt>
<totfact> 0.26558656E+01</totfact>
</mgrwt>
</event>
<event>
13    1  0.1595792E-008  0.3290726E+02  0.7546771E-02  0.1618070E+00
          2   -1    0    0  503    0  0.00000000000E+00  0.00000000000E+00  0.69168546823E+03  0.69168546823E+03  0.00000000000E+00 0. -1.
          2   -1    0    0  502    0 -0.00000000000E+00 -0.00000000000E+00 -0.12824743300E+04  0.12824743300E+04  0.00000000000E+00 0. -1.
         24    2    1    2    0    0  0.14327189031E+03 -0.24683120056E+01 -0.11190063856E+03  0.19558282874E+03  0.72096899179E+02 0.  0.
         25    2    1    2    0    0 -0.39480047761E+02  0.19998018663E+03 -0.64592808757E+02  0.24769773306E+03  0.12502474477E+03 0.  0.
         24    2    1    2    0    0 -0.66118444166E+02 -0.16618552037E+03  0.35658732930E+03  0.40718278660E+03  0.81572191621E+02 0.  0.
        -11    1    5    5    0    0 -0.81024345612E+02 -0.11999023163E+03  0.23197558771E+03  0.27345067848E+03  0.00000000000E+00 0.  1.
         12    1    5    5    0    0  0.14905901446E+02 -0.46195288745E+02  0.12461174159E+03  0.13373210812E+03  0.00000000000E+00 0. -1.
        -13    1    3    3    0    0  0.48719037608E+02  0.29877217234E+02 -0.60429293031E+02  0.83173867238E+02  0.00000000000E+00 0.  1.
         14    1    3    3    0    0  0.94552852699E+02 -0.32345529239E+02 -0.51471345531E+02  0.11240896150E+03  0.00000000000E+00 0. -1.
          5    1    4    4  501    0  0.12163949587E+02  0.13434349940E+03 -0.87638665417E+02  0.16093092673E+03  0.47000000000E+01 0.  1.
         -5    1    4    4    0  501 -0.51643997348E+02  0.65636687225E+02  0.23045856660E+02  0.86766806333E+02  0.47000000000E+01 0.  1.
          1    1    1    2  502    0 -0.57398405047E+01 -0.23593507248E+02 -0.94560247663E+03  0.94591418382E+03  0.00000000000E+00 0. -1.
          1    1    1    2  503    0 -0.31933557875E+02 -0.77328470042E+01  0.17471973289E+03  0.17778226599E+03  0.00000000000E+00 0. -1.
<mgrwt>
<rscale>  0 0.28267351E+02</rscale>
<asrwt>0</asrwt>
<pdfrwt beam="1">  1        2 0.10171845E+00 0.32907260E+02</pdfrwt>
<pdfrwt beam="2">  1        2 0.18859917E+00 0.24281667E+02</pdfrwt>
<totfact> 0.16856725E+02</totfact>
</mgrwt>
</event>
<event>
13    1  0.1595792E-008  0.1732072E+03  0.7546771E-02  0.1267500E+00
          2   -1    0    0  502    0  0.00000000000E+00  0.00000000000E+00  0.74209262095E+03  0.74209262095E+03  0.00000000000E+00 0. -1.
          2   -1    0    0  503    0 -0.00000000000E+00 -0.00000000000E+00 -0.12344524155E+04  0.12344524155E+04  0.00000000000E+00 0. -1.
         24    2    1    2    0    0  0.22225464404E+03 -0.21314749953E+03 -0.82684946948E+02  0.33098760778E+03  0.88808854840E+02 0.  0.
         25    2    1    2    0    0 -0.39951032733E+03  0.27769902136E+03 -0.62334496686E+01  0.50238455990E+03  0.12500456797E+03 0.  0.
         24    2    1    2    0    0  0.68385590669E+02 -0.41754902951E+02 -0.47524933618E+01  0.11369688383E+03  0.80525364122E+02 0.  0.
        -11    1    3    3    0    0  0.14448260799E+03 -0.11048255976E+03 -0.88058308448E+02  0.20207890961E+03  0.00000000000E+00 0.  1.
         12    1    3    3    0    0  0.77772036048E+02 -0.10266493977E+03  0.53733615003E+01  0.12890869817E+03  0.00000000000E+00 0. -1.
        -13    1    5    5    0    0  0.17214616327E+00  0.16158603060E+02  0.15013657221E+02  0.22057651514E+02  0.00000000000E+00 0.  1.
         14    1    5    5    0    0  0.68213444506E+02 -0.57913506011E+02 -0.19766150583E+02  0.91639232312E+02  0.00000000000E+00 0. -1.
          5    1    4    4  501    0 -0.12954988034E+03  0.24029111996E+02  0.82092936972E+00  0.13184587079E+03  0.47000000000E+01 0.  1.
         -5    1    4    4    0  501 -0.26996044699E+03  0.25366990937E+03 -0.70543790383E+01  0.37053868910E+03  0.47000000000E+01 0.  1.
          1    1    1    2  502    0  0.16068101100E+03 -0.62522972047E+02  0.29017032903E+03  0.33752974562E+03  0.00000000000E+00 0. -1.
          1    1    1    2  503    0 -0.51810918375E+02  0.39726353167E+02 -0.68885923362E+03  0.69194623935E+03  0.00000000000E+00 0. -1.
<mgrwt>
<rscale>  0 0.10634092E+03</rscale>
<asrwt>0</asrwt>
<pdfrwt beam="1">  1        2 0.10913127E+00 0.17320715E+03</pdfrwt>
<pdfrwt beam="2">  1        2 0.18153712E+00 0.65288241E+02</pdfrwt>
<totfact> 0.14630503E+02</totfact>
</mgrwt>
</event>
<event>
13    1  0.1595792E-008  0.1225552E+03  0.7546771E-02  0.1312891E+00
         -3   -1    0    0    0  502 -0.00000000000E+00  0.00000000000E+00  0.32055570120E+04  0.32055570120E+04  0.00000000000E+00 0.  1.
         -1   -1    0    0    0  501  0.00000000000E+00 -0.00000000000E+00 -0.24593901338E+03  0.24593901338E+03  0.00000000000E+00 0.  1.
         24    2    1    2    0    0  0.36834046494E+02  0.70002034254E+01  0.40409268623E+03  0.41267621290E+03  0.74866599977E+02 0.  0.
         25    2    1    2    0    0  0.14742606639E+03 -0.29410053433E+02  0.81175479430E+03  0.83496744814E+03  0.12500158834E+03 0.  0.
         24    2    1    2    0    0 -0.42420933058E+01  0.48735949477E+02  0.36608357633E+02  0.99087160755E+02  0.78005803955E+02 0.  0.
        -11    1    5    5    0    0 -0.20613118661E+02  0.21603177009E+02 -0.18779971985E+02  0.35274427927E+02  0.00000000000E+00 0.  1.
         12    1    5    5    0    0  0.16371025355E+02  0.27132772468E+02  0.55388329619E+02  0.63812732828E+02  0.00000000000E+00 0. -1.
        -13    1    3    3    0    0 -0.94890934482E+01  0.29459232838E+02  0.11816082940E+03  0.12214692341E+03  0.00000000000E+00 0.  1.
         14    1    3    3    0    0  0.46323139943E+02 -0.22459029413E+02  0.28593185683E+03  0.29052928949E+03  0.00000000000E+00 0. -1.
          5    1    4    4  503    0  0.64767135012E+02 -0.40219330911E+02  0.15366872495E+03  0.17160577899E+03  0.47000000000E+01 0.  1.
         -5    1    4    4    0  503  0.82658931382E+02  0.10809277478E+02  0.65808606936E+03  0.66336166915E+03  0.47000000000E+01 0.  1.
         -2    1    1    2    0  501 -0.14938422772E+03  0.25635559909E+02 -0.16935716821E+03  0.22727665927E+03  0.00000000000E+00 0.  1.
         -4    1    1    2    0  502 -0.30633791864E+02 -0.51961659379E+02  0.18765193286E+04  0.18774885443E+04  0.00000000000E+00 0.  1.
<mgrwt>
<rscale>  0 0.85979483E+02</rscale>
<asrwt>0</asrwt>
<pdfrwt beam="2">  1       -1 0.36167504E-01 0.12255523E+03</pdfrwt>
<pdfrwt beam="1">  1       -3 0.47140542E+00 0.60319510E+02</pdfrwt>
<totfact> 0.22298508E-01</totfact>
</mgrwt>
</event>
<event>
13    1  0.1595792E-008  0.2809848E+03  0.7546771E-02  0.1211851E+00
          2   -1    0    0  503    0  0.00000000000E+00  0.00000000000E+00  0.16621010293E+04  0.16621010293E+04  0.00000000000E+00 0. -1.
          2   -1    0    0  502    0 -0.00000000000E+00 -0.00000000000E+00 -0.30342215284E+04  0.30342215284E+04  0.00000000000E+00 0. -1.
         24    2    1    2    0    0 -0.19471253222E+03 -0.43664563193E+02 -0.15359706153E+02  0.21602101864E+03  0.81299419682E+02 0.  0.
         25    2    1    2    0    0 -0.47194431339E+02  0.15204135216E+03  0.10656965241E+03  0.22874771259E+03  0.12499815233E+03 0.  0.
         24    2    1    2    0    0  0.74918460744E+02  0.69034696088E+02  0.12119098882E+03  0.17802279186E+03  0.81402049284E+02 0.  0.
        -11    1    3    3    0    0 -0.41280603026E+02  0.79670449139E+01 -0.32625740550E+02  0.53216547589E+02  0.00000000000E+00 0.  1.
         12    1    3    3    0    0 -0.15343192919E+03 -0.51631608106E+02  0.17266034397E+02  0.16280447105E+03  0.00000000000E+00 0. -1.
        -11    1    5    5    0    0  0.56592185505E+02  0.52138871212E+02  0.13043204184E+03  0.15143861756E+03  0.00000000000E+00 0.  1.
         12    1    5    5    0    0  0.18326275239E+02  0.16895824876E+02 -0.92410530178E+01  0.26584174301E+02  0.00000000000E+00 0. -1.
          5    1    4    4  501    0  0.42757500651E+02  0.47058186877E+02  0.27688097916E+02  0.69508255483E+02  0.47000000000E+01 0.  1.
         -5    1    4    4    0  501 -0.89951931990E+02  0.10498316528E+03  0.78881554497E+02  0.15923945711E+03  0.47000000000E+01 0.  1.
          1    1    1    2  502    0  0.14751532010E+03 -0.24554203316E+03 -0.28207582159E+04  0.28352651679E+04  0.00000000000E+00 0. -1.
          1    1    1    2  503    0  0.19473182708E+02  0.68130548105E+02  0.12362367817E+04  0.12382658667E+04  0.00000000000E+00 0. -1.
<mgrwt>
<rscale>  0 0.14110373E+03</rscale>
<asrwt>0</asrwt>
<pdfrwt beam="1">  1        2 0.24442662E+00 0.70858849E+02</pdfrwt>
<pdfrwt beam="2">  1        2 0.44620905E+00 0.28098483E+03</pdfrwt>
<totfact> 0.51041245E+00</totfact>
</mgrwt>
</event>
<event>
13    1  0.1595792E-008  0.3632511E+02  0.7546771E-02  0.1544053E+00
          2   -1    0    0  502    0  0.00000000000E+00  0.00000000000E+00  0.11209487717E+04  0.11209487717E+04  0.00000000000E+00 0. -1.
          4   -1    0    0  503    0 -0.00000000000E+00 -0.00000000000E+00 -0.34331414406E+03  0.34331414406E+03  0.00000000000E+00 0. -1.
         24    2    1    2    0    0  0.18579893338E+02  0.43197845413E+02 -0.10485855316E+02  0.96567343019E+02  0.83690096734E+02 0.  0.
         25    2    1    2    0    0  0.13959919918E+03 -0.20893974335E+03  0.16362238722E+03  0.32487046074E+03  0.12499911158E+03 0.  0.
         24    2    1    2    0    0 -0.14128698376E+03  0.16454512224E+03  0.20341243450E+03  0.30746624050E+03  0.78241686486E+02 0.  0.
        -13    1    5    5    0    0  0.42752113088E+01  0.95511100042E+01 -0.32443313101E+01  0.10955675228E+02  0.00000000000E+00 0.  1.
         14    1    5    5    0    0 -0.14556219506E+03  0.15499401224E+03  0.20665676581E+03  0.29651056527E+03  0.00000000000E+00 0. -1.
        -13    1    3    3    0    0  0.26110128744E+01 -0.25134217174E+02 -0.73815389258E+01  0.26325527119E+02  0.00000000000E+00 0.  1.
         14    1    3    3    0    0  0.15968880464E+02  0.68332062587E+02 -0.31043163902E+01  0.70241815900E+02  0.00000000000E+00 0. -1.
          5    1    4    4  501    0 -0.32942520159E+01  0.30261429909E+01 -0.12720081999E+02  0.14279360063E+02  0.47000000000E+01 0. -1.
         -5    1    4    4    0  501  0.14289345120E+03 -0.21196588634E+03  0.17634246922E+03  0.31059110067E+03  0.47000000000E+01 0. -1.
          1    1    1    2  502    0 -0.72764182205E+01 -0.33956881140E+02  0.57557865806E+03  0.57662536161E+03  0.00000000000E+00 0. -1.
          3    1    1    2  503    0 -0.96156905434E+01  0.35153656836E+02 -0.15449299682E+03  0.15873350989E+03  0.00000000000E+00 0. -1.
<mgrwt>
<rscale>  0 0.35517445E+02</rscale>
<asrwt>0</asrwt>
<pdfrwt beam="1">  1        2 0.16484541E+00 0.34727742E+02</pdfrwt>
<pdfrwt beam="2">  1        4 0.50487375E-01 0.36325106E+02</pdfrwt>
<totfact> 0.46116990E+01</totfact>
</mgrwt>
</event>
<event>
13    1  0.1595792E-008  0.5952109E+03  0.7546771E-02  0.1196433E+00
          2   -1    0    0  503    0  0.00000000000E+00  0.00000000000E+00  0.33700357055E+04  0.33700357055E+04  0.00000000000E+00 0. -1.
         -1   -1    0    0    0  501 -0.00000000000E+00 -0.00000000000E+00 -0.71420715344E+03  0.71420715344E+03  0.00000000000E+00 0.  1.
         24    2    1    2    0    0  0.32068229038E+03 -0.26012599975E+03  0.21105474104E+03  0.47351610228E+03  0.95763919565E+02 0.  0.
         25    2    1    2    0    0 -0.27218617601E+03 -0.61220566417E+03  0.78723627876E+03  0.10412717913E+04  0.12499958053E+03 0.  0.
         24    2    1    2    0    0  0.59148457558E+02  0.24284618716E+03  0.45077486981E+03  0.52162985952E+03  0.80168051242E+02 0.  0.
        -11    1    5    5    0    0  0.17789961520E+02  0.15610606207E+03  0.34277032908E+03  0.37706376628E+03  0.00000000000E+00 0.  1.
         12    1    5    5    0    0  0.41358496038E+02  0.86740125094E+02  0.10800454073E+03  0.14456609324E+03  0.00000000000E+00 0. -1.
        -13    1    3    3    0    0  0.31372792230E+03 -0.22969808981E+03  0.17668220314E+03  0.42708666872E+03  0.00000000000E+00 0.  1.
         14    1    3    3    0    0  0.69543680835E+01 -0.30427909939E+02  0.34372537901E+02  0.46429433558E+02  0.00000000000E+00 0. -1.
          5    1    4    4  502    0 -0.21223673020E+03 -0.51798995907E+03  0.71545757524E+03  0.90843803273E+03  0.47000000000E+01 0. -1.
         -5    1    4    4    0  502 -0.59949445810E+02 -0.94215705093E+02  0.71778703528E+02  0.13283375858E+03  0.47000000000E+01 0. -1.
          1    1    1    2  503    0 -0.19019763355E+01  0.39456010172E+02  0.14132690847E+04  0.14138210282E+04  0.00000000000E+00 0. -1.
         -2    1    1    2    0  501 -0.10574259560E+03  0.59002946658E+03 -0.20650642222E+03  0.63400407757E+03  0.00000000000E+00 0.  1.
<mgrwt>
<rscale>  0 0.15333596E+03</rscale>
<asrwt>0</asrwt>
<pdfrwt beam="1">  1        2 0.49559348E+00 0.39501826E+02</pdfrwt>
<pdfrwt beam="2">  1       -1 0.10503047E+00 0.59521090E+03</pdfrwt>
<totfact> 0.21618144E+00</totfact>
</mgrwt>
</event>
<event>
13    1  0.1595792E-008  0.7821771E+02  0.7546771E-02  0.1468313E+00
         -1   -1    0    0    0  501 -0.00000000000E+00  0.00000000000E+00  0.17272402195E+03  0.17272402195E+03  0.00000000000E+00 0.  1.
          2   -1    0    0  503    0  0.00000000000E+00 -0.00000000000E+00 -0.22052228788E+04  0.22052228788E+04  0.00000000000E+00 0. -1.
         24    2    1    2    0    0  0.10900328173E+03 -0.43375485334E+01 -0.41494114265E+02  0.14145610280E+03  0.79922072955E+02 0.  0.
         25    2    1    2    0    0 -0.16893467495E+03 -0.41444675726E+02 -0.31253052153E+03  0.37888934797E+03  0.12500090229E+03 0.  0.
         24    2    1    2    0    0  0.55926733302E+02 -0.57787551681E+02 -0.15821815414E+03  0.19441069516E+03  0.79343137489E+02 0.  0.
        -11    1    5    5    0    0  0.38847520974E+02  0.12350537487E+02 -0.58875523941E+02  0.71610006154E+02  0.00000000000E+00 0.  1.
         12    1    5    5    0    0  0.17079212328E+02 -0.70138089168E+02 -0.99342630202E+02  0.12280068901E+03  0.00000000000E+00 0. -1.
        -13    1    3    3    0    0  0.18579296055E+02  0.31346012592E+02 -0.18883016179E+01  0.36487373573E+02  0.00000000000E+00 0.  1.
         14    1    3    3    0    0  0.90423985671E+02 -0.35683561125E+02 -0.39605812647E+02  0.10496872922E+03  0.00000000000E+00 0. -1.
          5    1    4    4  502    0 -0.79070399469E+02  0.43566855735E+02 -0.13341436495E+03  0.16115731993E+03  0.47000000000E+01 0. -1.
         -5    1    4    4    0  502 -0.89864275480E+02 -0.85011531461E+02 -0.17911615658E+03  0.21773202804E+03  0.47000000000E+01 0. -1.
          1    1    1    2  503    0  0.10340141296E+02  0.77293179182E+02 -0.15881763523E+04  0.15900897082E+04  0.00000000000E+00 0. -1.
         -2    1    1    2    0  501 -0.63354813746E+01  0.26276596758E+02  0.67920285353E+02  0.73101046667E+02  0.00000000000E+00 0.  1.
<mgrwt>
<rscale>  0 0.45980338E+02</rscale>
<asrwt>0</asrwt>
<pdfrwt beam="2">  1        2 0.32429748E+00 0.78217713E+02</pdfrwt>
<pdfrwt beam="1">  1       -1 0.25400592E-01 0.27029574E+02</pdfrwt>
<totfact> 0.10894613E+02</totfact>
</mgrwt>
</event>
<event>
13    1  0.1595792E-008  0.2664046E+03  0.7546771E-02  0.1197034E+00
          2   -1    0    0  502    0  0.00000000000E+00  0.00000000000E+00  0.20393523659E+04  0.20393523659E+04  0.00000000000E+00 0. -1.
          2   -1    0    0  503    0 -0.00000000000E+00 -0.00000000000E+00 -0.11845001952E+04  0.11845001952E+04  0.00000000000E+00 0. -1.
         24    2    1    2    0    0 -0.12173378077E+03 -0.41312841352E+01 -0.15595611698E+03  0.21316153697E+03  0.79242346820E+02 0.  0.
         25    2    1    2    0    0  0.17586615391E+03  0.39050570805E+03 -0.79445122263E+02  0.45316426671E+03  0.12499085190E+03 0.  0.
         24    2    1    2    0    0  0.21207412487E+02 -0.17724202598E+03  0.36283847451E+03  0.41231092117E+03  0.80523580496E+02 0.  0.
        -11    1    3    3    0    0 -0.12926676743E+03 -0.67211795257E+01 -0.12059072243E+03  0.17691012902E+03  0.00000000000E+00 0.  1.
         12    1    3    3    0    0  0.75329866566E+01  0.25898953905E+01 -0.35365394555E+02  0.36251407947E+02  0.00000000000E+00 0. -1.
        -11    1    5    5    0    0  0.50976308434E+02 -0.87664758120E+02  0.19121037552E+03  0.21643729241E+03  0.00000000000E+00 0.  1.
         12    1    5    5    0    0 -0.29768895947E+02 -0.89577267857E+02  0.17162809899E+03  0.19587362876E+03  0.00000000000E+00 0. -1.
          5    1    4    4  501    0  0.12243154205E+03  0.29849850567E+03 -0.40755227944E+01  0.32269109108E+03  0.47000000000E+01 0. -1.
         -5    1    4    4    0  501  0.53434611859E+02  0.92007202384E+02 -0.75369599468E+02  0.13047317563E+03  0.47000000000E+01 0. -1.
          1    1    1    2  502    0  0.12337618568E+02 -0.20871180075E+03  0.14259518030E+04  0.14411978966E+04  0.00000000000E+00 0. -1.
          1    1    1    2  503    0 -0.87677404199E+02 -0.42059719184E+00 -0.69853686752E+03  0.70401793968E+03  0.00000000000E+00 0. -1.
<mgrwt>
<rscale>  0 0.15283301E+03</rscale>
<asrwt>0</asrwt>
<pdfrwt beam="1">  1        2 0.29990476E+00 0.26640455E+03</pdfrwt>
<pdfrwt beam="2">  1        2 0.17419121E+00 0.87678413E+02</pdfrwt>
<totfact> 0.28973561E+01</totfact>
</mgrwt>
</event>
<event>
13    1  0.1798453E-008  0.9027626E+02  0.7546771E-02  0.1493288E+00
          2   -1    0    0  502    0  0.00000000000E+00  0.00000000000E+00  0.32191622585E+04  0.32191622585E+04  0.00000000000E+00 0. -1.
          2   -1    0    0  503    0 -0.00000000000E+00 -0.00000000000E+00 -0.21894380484E+04  0.21894380484E+04  0.00000000000E+00 0. -1.
         24    2    1    2    0    0 -0.44862960725E+02 -0.33309002680E+03 -0.21956460448E+03  0.40958600739E+03  0.81181467792E+02 0.  0.
         25    2    1    2    0    0 -0.84813725738E+03  0.83611696517E+03  0.15289208096E+03  0.12072403916E+04  0.12499995204E+03 0.  0.
         24    2    1    2    0    0  0.85020906780E+03 -0.41659619996E+03  0.14293558440E+04  0.17179076944E+04  0.10835527208E+03 0.  0.
        -11    1    5    5    0    0  0.25640168652E+03 -0.17895052289E+03  0.43879655786E+03  0.53880194291E+03  0.00000000000E+00 0.  1.
         12    1    5    5    0    0  0.59380738128E+03 -0.23764567707E+03  0.99055928613E+03  0.11791057515E+04  0.00000000000E+00 0. -1.
        -13    1    3    3    0    0 -0.43253899055E+01 -0.20906825809E+03 -0.96793223782E+02  0.23042823982E+03  0.00000000000E+00 0.  1.
         14    1    3    3    0    0 -0.40537570820E+02 -0.12402176871E+03 -0.12277138070E+03  0.17915776757E+03  0.00000000000E+00 0. -1.
          5    1    4    4  501    0 -0.49172688453E+03  0.56799524676E+03  0.10669075213E+03  0.75882734262E+03  0.47000000000E+01 0.  1.
         -5    1    4    4    0  501 -0.35641037285E+03  0.26812171840E+03  0.46201328829E+02  0.44841304903E+03  0.47000000000E+01 0.  1.
          1    1    1    2  502    0 -0.12544135962E+02 -0.15105727833E+02  0.86864950437E+03  0.86887139428E+03  0.00000000000E+00 0. -1.
          1    1    1    2  503    0  0.55335286265E+02 -0.71325010574E+02 -0.12016086147E+04  0.12049948191E+04  0.00000000000E+00 0. -1.
<mgrwt>
<rscale>  0 0.42102093E+02</rscale>
<asrwt>0</asrwt>
<pdfrwt beam="1">  1        2 0.47340621E+00 0.19635131E+02</pdfrwt>
<pdfrwt beam="2">  1        2 0.32197618E+00 0.90276262E+02</pdfrwt>
<totfact> 0.34839869E+00</totfact>
</mgrwt>
</event>
<event>
13    1  0.1595792E-008  0.1333555E+03  0.7546771E-02  0.1386787E+00
          2   -1    0    0  503    0  0.00000000000E+00  0.00000000000E+00  0.78341695757E+03  0.78341695757E+03  0.00000000000E+00 0. -1.
          2   -1    0    0  502    0 -0.00000000000E+00 -0.00000000000E+00 -0.17685687292E+03  0.17685687292E+03  0.00000000000E+00 0. -1.
         24    2    1    2    0    0  0.35134626301E+02  0.15899807732E+03  0.52175425154E+02  0.18913307571E+03  0.80834490034E+02 0.  0.
         25    2    1    2    0    0 -0.90173545865E+02 -0.93735388299E+02  0.27787203177E+03  0.33129128009E+03  0.12499381917E+03 0.  0.
         24    2    1    2    0    0  0.54956873075E+02  0.70406972378E+02  0.19026806561E+03  0.22618303992E+03  0.83542989523E+02 0.  0.
        -13    1    5    5    0    0 -0.67467662676E+01  0.27488332679E+02  0.11999064460E+03  0.12328374621E+03  0.00000000000E+00 0.  1.
         14    1    5    5    0    0  0.61703639343E+02  0.42918639699E+02  0.70277421015E+02  0.10289929371E+03  0.00000000000E+00 0. -1.
        -13    1    3    3    0    0  0.84921605153E+01  0.26554866983E+02  0.46131370312E+02  0.53901586967E+02  0.00000000000E+00 0.  1.
         14    1    3    3    0    0  0.26642465786E+02  0.13244321034E+03  0.60440548426E+01  0.13523148874E+03  0.00000000000E+00 0. -1.
          5    1    4    4  501    0  0.59936267273E+01 -0.83155046955E+02  0.12580803605E+03  0.15099813684E+03  0.47000000000E+01 0. -1.
         -5    1    4    4    0  501 -0.96167172593E+02 -0.10580341344E+02  0.15206399573E+03  0.18029314325E+03  0.47000000000E+01 0. -1.
          1    1    1    2  502    0  0.28826479311E+02 -0.14226736178E+03  0.27226238690E+02  0.14768966182E+03  0.00000000000E+00 0. -1.
          1    1    1    2  503    0 -0.28744432822E+02  0.65977003744E+01  0.59018323420E+02  0.65976772942E+02  0.00000000000E+00 0. -1.
<mgrwt>
<rscale>  0 0.62712901E+02</rscale>
<asrwt>0</asrwt>
<pdfrwt beam="1">  1        2 0.11520837E+00 0.29491898E+02</pdfrwt>
<pdfrwt beam="2">  1        2 0.26008364E-01 0.13335554E+03</pdfrwt>
<totfact> 0.13009188E+03</totfact>
</mgrwt>
</event>
<event>
13    1  0.1595792E-008  0.1564919E+03  0.7546771E-02  0.1273843E+00
          2   -1    0    0  502    0  0.00000000000E+00  0.00000000000E+00  0.10330584129E+04  0.10330584129E+04  0.00000000000E+00 0. -1.
          2   -1    0    0  503    0 -0.00000000000E+00 -0.00000000000E+00 -0.33383931618E+04  0.33383931618E+04  0.00000000000E+00 0. -1.
         24    2    1    2    0    0 -0.45899691081E+02  0.60667543631E+02 -0.88099419389E+02  0.14049069045E+03  0.78668887839E+02 0.  0.
         25    2    1    2    0    0 -0.74256802330E+02 -0.90268131842E+02 -0.12573137151E+03  0.21235894237E+03  0.12500213719E+03 0.  0.
         24    2    1    2    0    0  0.33426038995E+02 -0.27231403742E+01  0.94728540670E+02  0.13034580170E+03  0.83016962286E+02 0.  0.
        -11    1    3    3    0    0 -0.40627700677E+02  0.76995036398E+02 -0.87338799443E+02  0.12331630703E+03  0.00000000000E+00 0.  1.
         12    1    3    3    0    0 -0.52719904033E+01 -0.16327492767E+02 -0.76061994531E+00  0.17174383412E+02  0.00000000000E+00 0. -1.
        -13    1    5    5    0    0  0.55063359382E+02  0.19530171943E+02  0.64333641320E+02  0.86903501472E+02  0.00000000000E+00 0.  1.
         14    1    5    5    0    0 -0.21637320388E+02 -0.22253312318E+02  0.30394899350E+02  0.43442300228E+02  0.00000000000E+00 0. -1.
          5    1    4    4  501    0  0.12364098753E+01 -0.72726954761E+02 -0.11181589381E+03  0.13347517659E+03  0.47000000000E+01 0.  1.
         -5    1    4    4    0  501 -0.75493212206E+02 -0.17541177080E+02 -0.13915477700E+02  0.78883765770E+02  0.47000000000E+01 0.  1.
          1    1    1    2  502    0 -0.67466993091E+02 -0.82315777180E+01  0.84755797194E+03  0.85027881888E+03  0.00000000000E+00 0. -1.
          1    1    1    2  503    0  0.15419744751E+03  0.40555306303E+02 -0.30337904705E+04  0.30379773213E+04  0.00000000000E+00 0. -1.
<mgrwt>
<rscale>  0 0.10313260E+03</rscale>
<asrwt>0</asrwt>
<pdfrwt beam="1">  1        2 0.15192036E+00 0.67967301E+02</pdfrwt>
<pdfrwt beam="2">  1        2 0.49094017E+00 0.15649192E+03</pdfrwt>
<totfact> 0.78127369E+00</totfact>
</mgrwt>
</event>
<event>
13    1  0.1595792E-008  0.1083119E+03  0.7546771E-02  0.1312667E+00
          2   -1    0    0  503    0  0.00000000000E+00  0.00000000000E+00  0.99015785914E+03  0.99015785914E+03  0.00000000000E+00 0. -1.
         -3   -1    0    0    0  501 -0.00000000000E+00 -0.00000000000E+00 -0.62464710681E+03  0.62464710681E+03  0.00000000000E+00 0.  1.
         24    2    1    2    0    0 -0.12758028020E+02 -0.48842383411E+02 -0.19339169619E+02  0.96560206080E+02  0.80009525811E+02 0.  0.
         25    2    1    2    0    0  0.10339863863E+03 -0.12913425717E+03  0.44426253853E+02  0.21204720810E+03  0.12499356617E+03 0.  0.
         24    2    1    2    0    0 -0.25800571501E+02  0.58586904003E+01  0.85544500481E+02  0.12026119022E+03  0.80280125604E+02 0.  0.
        -13    1    5    5    0    0 -0.21191638375E+02 -0.15541723405E+02  0.93381970056E+02  0.97009396632E+02  0.00000000000E+00 0.  1.
         14    1    5    5    0    0 -0.46089331255E+01  0.21400413805E+02 -0.78374695753E+01  0.23251793585E+02  0.00000000000E+00 0. -1.
        -13    1    3    3    0    0  0.33800216403E+02 -0.17956161586E+02 -0.32149712668E+01  0.38408519992E+02  0.00000000000E+00 0.  1.
         14    1    3    3    0    0 -0.46558244423E+02 -0.30886221826E+02 -0.16124198352E+02  0.58151686088E+02  0.00000000000E+00 0. -1.
          5    1    4    4  502    0  0.74251178275E+02 -0.61146051477E+02 -0.35873638726E+02  0.10276713989E+03  0.47000000000E+01 0.  1.
         -5    1    4    4    0  502  0.29147460359E+02 -0.67988205698E+02  0.80299892579E+02  0.10928006821E+03  0.47000000000E+01 0.  1.
          1    1    1    2  503    0 -0.48764083029E+02  0.10564447825E+03  0.71315543837E+03  0.72258519972E+03  0.00000000000E+00 0. -1.
         -4    1    1    2    0  501 -0.16075956084E+02  0.66473471932E+02 -0.45827627075E+03  0.46335116183E+03  0.00000000000E+00 0.  1.
<mgrwt>
<rscale>  0 0.86066414E+02</rscale>
<asrwt>0</asrwt>
<pdfrwt beam="1">  1        2 0.14561145E+00 0.10831195E+03</pdfrwt>
<pdfrwt beam="2">  1       -3 0.91859868E-01 0.68389757E+02</pdfrwt>
<totfact> 0.19679321E+01</totfact>
</mgrwt>
</event>
<event>
13    1  0.1595792E-008  0.9802680E+02  0.7546771E-02  0.1358995E+00
          2   -1    0    0  503    0  0.00000000000E+00  0.00000000000E+00  0.29231839848E+04  0.29231839848E+04  0.00000000000E+00 0. -1.
          2   -1    0    0  502    0 -0.00000000000E+00 -0.00000000000E+00 -0.12439827429E+04  0.12439827429E+04  0.00000000000E+00 0. -1.
         24    2    1    2    0    0 -0.37617068546E+02 -0.12728857310E+03  0.20434410808E+03  0.25369141588E+03  0.70607331731E+02 0.  0.
         25    2    1    2    0    0  0.11565216849E+03  0.16757921505E+03  0.19883625813E+03  0.31083673534E+03  0.12500160438E+03 0.  0.
         24    2    1    2    0    0  0.23465239900E+02  0.64225622858E+02  0.80384320183E+03  0.81065636049E+03  0.79525427118E+02 0.  0.
        -11    1    5    5    0    0 -0.27418721762E+02  0.11906767425E+02  0.31186509683E+03  0.31329442388E+03  0.00000000000E+00 0.  1.
         12    1    5    5    0    0  0.50883961662E+02  0.52318855433E+02  0.49197810500E+03  0.49736193661E+03  0.00000000000E+00 0. -1.
        -13    1    3    3    0    0  0.65559982177E+00 -0.76342338054E+02  0.15609414364E+03  0.17376410466E+03  0.00000000000E+00 0.  1.
         14    1    3    3    0    0 -0.38272668368E+02 -0.50946235046E+02  0.48249964443E+02  0.79927311216E+02  0.00000000000E+00 0. -1.
          5    1    4    4  501    0 -0.47136065077E+01  0.59188884645E+02  0.73914200502E+01  0.60018874050E+02  0.47000000000E+01 0.  1.
         -5    1    4    4    0  501  0.12036577500E+03  0.10839033040E+03  0.19144483808E+03  0.25081786129E+03  0.47000000000E+01 0.  1.
          1    1    1    2  502    0 -0.26045934455E+02 -0.43206577410E+02 -0.11579046340E+04  0.11590031667E+04  0.00000000000E+00 0. -1.
          1    1    1    2  503    0 -0.75454405389E+02 -0.61309687395E+02  0.16300823079E+04  0.16329790493E+04  0.00000000000E+00 0. -1.
<mgrwt>
<rscale>  0 0.70323884E+02</rscale>
<asrwt>0</asrwt>
<pdfrwt beam="1">  1        2 0.42988000E+00 0.98026800E+02</pdfrwt>
<pdfrwt beam="2">  1        2 0.18293864E+00 0.50449966E+02</pdfrwt>
<totfact> 0.11206786E+01</totfact>
</mgrwt>
</event>
<event>
13    1  0.1595792E-008  0.6869004E+02  0.7546771E-02  0.1477503E+00
          2   -1    0    0  503    0  0.00000000000E+00  0.00000000000E+00  0.17731914908E+04  0.17731914908E+04  0.00000000000E+00 0. -1.
         -1   -1    0    0    0  501 -0.00000000000E+00 -0.00000000000E+00 -0.14887691127E+04  0.14887691127E+04  0.00000000000E+00 0.  1.
         24    2    1    2    0    0 -0.23554601342E+02 -0.20003050386E+01 -0.34977789148E+03  0.35960556837E+03  0.80079778804E+02 0.  0.
         25    2    1    2    0    0 -0.91318477190E+02  0.37638239781E+03  0.71510242677E+03  0.82280054048E+03  0.12500589980E+03 0.  0.
         24    2    1    2    0    0  0.99559415686E+02 -0.46826200430E+03  0.82453387270E+03  0.95832093212E+03  0.96651537914E+02 0.  0.
        -13    1    5    5    0    0  0.76443110474E+02 -0.38369218590E+03  0.73714774643E+03  0.83453582471E+03  0.00000000000E+00 0.  1.
         14    1    5    5    0    0  0.23116305212E+02 -0.84569818404E+02  0.87386126272E+02  0.12378510741E+03  0.00000000000E+00 0. -1.
        -13    1    3    3    0    0  0.15688965542E+02  0.27910748139E+02 -0.17904996365E+03  0.18189019486E+03  0.00000000000E+00 0.  1.
         14    1    3    3    0    0 -0.39243566884E+02 -0.29911053178E+02 -0.17072792783E+03  0.17771537352E+03  0.00000000000E+00 0. -1.
          5    1    4    4  502    0 -0.68746320191E+02  0.35281886717E+03  0.56915899506E+03  0.67317996200E+03  0.47000000000E+01 0. -1.
         -5    1    4    4    0  502 -0.22572157000E+02  0.23563530640E+02  0.14594343171E+03  0.14962057848E+03  0.47000000000E+01 0. -1.
          1    1    1    2  503    0 -0.52192533252E+01  0.28349217595E+02  0.10478681956E+03  0.10867932783E+03  0.00000000000E+00 0. -1.
         -2    1    1    2    0  501  0.20532916172E+02  0.65530693934E+02 -0.10102228495E+04  0.10125542347E+04  0.00000000000E+00 0.  1.
<mgrwt>
<rscale>  0 0.44497594E+02</rscale>
<asrwt>0</asrwt>
<pdfrwt beam="1">  1        2 0.26076345E+00 0.28825661E+02</pdfrwt>
<pdfrwt beam="2">  1       -1 0.21893664E+00 0.68690043E+02</pdfrwt>
<totfact> 0.21907558E+00</totfact>
</mgrwt>
</event>
<event>
13    1  0.1595792E-008  0.6377690E+02  0.7546771E-02  0.1595995E+00
          2   -1    0    0  503    0  0.00000000000E+00  0.00000000000E+00  0.29467275406E+04  0.29467275406E+04  0.00000000000E+00 0. -1.
          2   -1    0    0  502    0 -0.00000000000E+00 -0.00000000000E+00 -0.27076147998E+03  0.27076147998E+03  0.00000000000E+00 0. -1.
         24    2    1    2    0    0  0.80792214578E+02 -0.93636868875E+02  0.37123630033E+03  0.39952496606E+03  0.80675663483E+02 0.  0.
         25    2    1    2    0    0 -0.18763441222E+03  0.57253410357E+02  0.10592281645E+04  0.10844696294E+04  0.12500178746E+03 0.  0.
         24    2    1    2    0    0  0.44977674282E+02  0.40513844199E+02  0.47522168226E+03  0.48573610022E+03  0.80246800630E+02 0.  0.
        -13    1    5    5    0    0 -0.12039103773E+02  0.34645121585E+02  0.27621519213E+03  0.27863965409E+03  0.00000000000E+00 0.  1.
         14    1    5    5    0    0  0.57016778055E+02  0.58687226132E+01  0.19900649014E+03  0.20709644613E+03  0.00000000000E+00 0. -1.
        -13    1    3    3    0    0  0.83265538146E+02 -0.51914732924E+02  0.31172043271E+03  0.32679950658E+03  0.00000000000E+00 0.  1.
         14    1    3    3    0    0 -0.24733235681E+01 -0.41722135951E+02  0.59515867622E+02  0.72725459480E+02  0.00000000000E+00 0. -1.
          5    1    4    4  501    0 -0.74686187828E+02  0.76348879484E+02  0.67795286530E+03  0.68633035458E+03  0.47000000000E+01 0.  1.
         -5    1    4    4    0  501 -0.11294822440E+03 -0.19095469126E+02  0.38127529920E+03  0.39813927477E+03  0.47000000000E+01 0.  1.
          1    1    1    2  502    0  0.61072762841E+02 -0.18399714324E+02 -0.23442714960E+03  0.24294962506E+03  0.00000000000E+00 0. -1.
          1    1    1    2  503    0  0.79176052242E+00  0.14269328644E+02  0.10047070631E+04  0.10048086999E+04  0.00000000000E+00 0. -1.
<mgrwt>
<rscale>  0 0.30190286E+02</rscale>
<asrwt>0</asrwt>
<pdfrwt beam="1">  1        2 0.43334227E+00 0.14291278E+02</pdfrwt>
<pdfrwt beam="2">  1        2 0.39817866E-01 0.63776899E+02</pdfrwt>
<totfact> 0.85010195E+01</totfact>
</mgrwt>
</event>
<event>
13    1  0.1595792E-008  0.1806754E+03  0.7546771E-02  0.1424861E+00
         -1   -1    0    0    0  501 -0.00000000000E+00  0.00000000000E+00  0.29439664333E+04  0.29439664333E+04  0.00000000000E+00 0.  1.
          2   -1    0    0  503    0  0.00000000000E+00 -0.00000000000E+00 -0.10774039092E+04  0.10774039092E+04  0.00000000000E+00 0. -1.
         24    2    1    2    0    0 -0.45390030012E+02  0.74854712795E+02  0.93600992715E+02  0.15110935314E+03  0.80058777886E+02 0.  0.
         25    2    1    2    0    0  0.15998943461E+03  0.11908229070E+03 -0.92259694623E+02  0.25281107215E+03  0.12499750319E+03 0.  0.
         24    2    1    2    0    0  0.23536137257E+02 -0.10507817184E+03 -0.16739875301E+03  0.21436490303E+03  0.79590182737E+02 0.  0.
        -11    1    5    5    0    0  0.28636278225E+02 -0.21884050950E+02 -0.10273173593E+03  0.10887037101E+03  0.00000000000E+00 0.  1.
         12    1    5    5    0    0 -0.51001409680E+01 -0.83194120885E+02 -0.64667017075E+02  0.10549453202E+03  0.00000000000E+00 0. -1.
        -11    1    3    3    0    0  0.21711021433E+02  0.14065958621E+02  0.33954717202E+02  0.42686560693E+02  0.00000000000E+00 0.  1.
         12    1    3    3    0    0 -0.67101051445E+02  0.60788754174E+02  0.59646275513E+02  0.10842279244E+03  0.00000000000E+00 0. -1.
          5    1    4    4  502    0  0.83759432329E+02  0.13278664901E+03 -0.70918009464E+02  0.17233511170E+03  0.47000000000E+01 0. -1.
         -5    1    4    4    0  502  0.76230002276E+02 -0.13704358311E+02 -0.21341685159E+02  0.80475960443E+02  0.47000000000E+01 0. -1.
          1    1    1    2  503    0  0.14117645368E+02  0.78282967312E+01 -0.68214472179E+03  0.68233570301E+03  0.00000000000E+00 0. -1.
         -2    1    1    2    0  501 -0.15225318722E+03 -0.96687128390E+02  0.27147647008E+04  0.27207493112E+04  0.00000000000E+00 0.  1.
<mgrwt>
<rscale>  0 0.54005619E+02</rscale>
<asrwt>0</asrwt>
<pdfrwt beam="2">  1        2 0.15844175E+00 0.16142805E+02</pdfrwt>
<pdfrwt beam="1">  1       -1 0.43293624E+00 0.18067535E+03</pdfrwt>
<totfact> 0.19074041E-01</totfact>
</mgrwt>
</event>
<event>
13    1  0.1595792E-008  0.9186843E+02  0.7546771E-02  0.1363398E+00
          2   -1    0    0  503    0  0.00000000000E+00  0.00000000000E+00  0.84070386131E+03  0.84070386131E+03  0.00000000000E+00 0. -1.
          2   -1    0    0  502    0 -0.00000000000E+00 -0.00000000000E+00 -0.27790615932E+04  0.27790615932E+04  0.00000000000E+00 0. -1.
         24    2    1    2    0    0 -0.75636341692E+02 -0.10407140714E+03 -0.39629605725E+03  0.42470120360E+03  0.82272920082E+02 0.  0.
         25    2    1    2    0    0 -0.85932882104E+02  0.43092291350E+02 -0.16643999695E+02  0.15856863417E+03  0.12500233285E+03 0.  0.
         24    2    1    2    0    0  0.34710919099E+02 -0.43239305690E+01 -0.16828038619E+01  0.87782820242E+02  0.80495014881E+02 0.  0.
        -13    1    5    5    0    0 -0.86158928559E+01  0.30032106226E+02 -0.76504717178E+01  0.32166608954E+02  0.00000000000E+00 0.  1.
         14    1    5    5    0    0  0.43326811955E+02 -0.34356036795E+02  0.59676678559E+01  0.55616211289E+02  0.00000000000E+00 0. -1.
        -13    1    3    3    0    0 -0.53321652969E+02 -0.56525515245E+02 -0.11662968216E+03  0.14014569315E+03  0.00000000000E+00 0.  1.
         14    1    3    3    0    0 -0.22314688723E+02 -0.47545891894E+02 -0.27966637509E+03  0.28455551045E+03  0.00000000000E+00 0. -1.
          5    1    4    4  501    0 -0.10463871889E+03 -0.60191450730E+01 -0.10124279064E+02  0.10540437668E+03  0.47000000000E+01 0.  1.
         -5    1    4    4    0  501  0.18705836783E+02  0.49111436423E+02 -0.65197206307E+01  0.53164257489E+02  0.47000000000E+01 0.  1.
          1    1    1    2  502    0  0.78016862545E+02  0.47808525054E+02 -0.22343417939E+04  0.22362145555E+04  0.00000000000E+00 0. -1.
          1    1    1    2  503    0  0.48841442153E+02  0.17494521304E+02  0.71060692283E+03  0.71249824106E+03  0.00000000000E+00 0. -1.
<mgrwt>
<rscale>  0 0.69037262E+02</rscale>
<asrwt>0</asrwt>
<pdfrwt beam="1">  1        2 0.12363292E+00 0.51880100E+02</pdfrwt>
<pdfrwt beam="2">  1        2 0.40868552E+00 0.91868433E+02</pdfrwt>
<totfact> 0.22363162E+01</totfact>
</mgrwt>
</event>
<event>
13    1  0.1595792E-008  0.1483558E+03  0.7546771E-02  0.1325597E+00
          2   -1    0    0  503    0  0.00000000000E+00  0.00000000000E+00  0.15963055340E+04  0.15963055340E+04  0.00000000000E+00 0. -1.
         -1   -1    0    0    0  501 -0.00000000000E+00 -0.00000000000E+00 -0.34318831182E+03  0.34318831182E+03  0.00000000000E+00 0.  1.
         24    2    1    2    0    0  0.59027983016E+02 -0.95230344142E+02  0.16435388146E+03  0.21444228138E+03  0.80125978728E+02 0.  0.
         25    2    1    2    0    0 -0.15108739882E+03 -0.66438395469E+02  0.38136690544E+03  0.43393714425E+03  0.12497706236E+03 0.  0.
         24    2    1    2    0    0  0.20634755826E+02  0.34034340781E+02  0.66078612809E+03  0.66687605619E+03  0.80630253311E+02 0.  0.
        -11    1    3    3    0    0 -0.93095245240E+01 -0.43699125520E+02  0.92363746558E+02  0.10260283864E+03  0.00000000000E+00 0.  1.
         12    1    3    3    0    0  0.68337507540E+02 -0.51531218622E+02  0.71990134902E+02  0.11183944274E+03  0.00000000000E+00 0. -1.
        -13    1    5    5    0    0 -0.73826660510E+01  0.31150818759E+02  0.92330020514E+02  0.97722617420E+02  0.00000000000E+00 0.  1.
         14    1    5    5    0    0  0.28017421877E+02  0.28835220218E+01  0.56845610757E+03  0.56915343877E+03  0.00000000000E+00 0. -1.
          5    1    4    4  502    0 -0.16875261161E+03 -0.67996728287E+02  0.30305073942E+03  0.35350083401E+03  0.47000000000E+01 0.  1.
         -5    1    4    4    0  502  0.17665212791E+02  0.15583328185E+01  0.78316166019E+02  0.80436310234E+02  0.47000000000E+01 0.  1.
          1    1    1    2  503    0  0.39849664120E+02 -0.19751391056E+02  0.31408413209E+03  0.31721752034E+03  0.00000000000E+00 0. -1.
         -2    1    1    2    0  501  0.31574995859E+02  0.14738578989E+03 -0.26747382491E+03  0.30702084365E+03  0.00000000000E+00 0.  1.
<mgrwt>
<rscale>  0 0.81229731E+02</rscale>
<asrwt>0</asrwt>
<pdfrwt beam="1">  1        2 0.23475081E+00 0.44475984E+02</pdfrwt>
<pdfrwt beam="2">  1       -1 0.50468870E-01 0.14835578E+03</pdfrwt>
<totfact> 0.71927953E+01</totfact>
</mgrwt>
</event>
<event>
13    1  0.1595792E-008  0.8348541E+02  0.7546771E-02  0.1326553E+00
          2   -1    0    0  503    0  0.00000000000E+00  0.00000000000E+00  0.96880858494E+03  0.96880858494E+03  0.00000000000E+00 0. -1.
          2   -1    0    0  502    0 -0.00000000000E+00 -0.00000000000E+00 -0.60238468137E+03  0.60238468137E+03  0.00000000000E+00 0. -1.
         24    2    1    2    0    0  0.38902623147E+02 -0.18240353245E+02 -0.13735141020E+02  0.97075929837E+02  0.85959045368E+02 0.  0.
         25    2    1    2    0    0 -0.32114978651E+01 -0.56668006961E+02  0.16288543851E+01  0.13729399621E+03  0.12500164598E+03 0.  0.
         24    2    1    2    0    0  0.19509528342E+01 -0.19799298603E+02  0.27697096705E+03  0.28922749307E+03  0.80893805189E+02 0.  0.
        -11    1    3    3    0    0  0.36415912761E+02 -0.46376011962E+02  0.10458849322E+02  0.59885229539E+02  0.00000000000E+00 0.  1.
         12    1    3    3    0    0  0.24867103864E+01  0.28135658717E+02 -0.24193990343E+02  0.37190700298E+02  0.00000000000E+00 0. -1.
        -11    1    5    5    0    0  0.24405446530E+01 -0.24799622433E+02  0.19330404474E+02  0.31537946479E+02  0.00000000000E+00 0.  1.
         12    1    5    5    0    0 -0.48959181884E+00  0.50003238300E+01  0.25764056257E+03  0.25768954659E+03  0.00000000000E+00 0. -1.
          5    1    4    4  501    0  0.32325188544E+01 -0.85768067717E+02  0.34546329611E+02  0.92639891557E+02  0.47000000000E+01 0. -1.
         -5    1    4    4    0  501 -0.64440167195E+01  0.29100060756E+02 -0.32917475226E+02  0.44654104657E+02  0.47000000000E+01 0. -1.
          1    1    1    2  502    0 -0.81964378926E+02  0.20567005751E+02 -0.46594975644E+03  0.47355077517E+03  0.00000000000E+00 0. -1.
          1    1    1    2  503    0  0.44322300810E+02  0.74140653058E+02  0.56750897960E+03  0.57404507202E+03  0.00000000000E+00 0. -1.
<mgrwt>
<rscale>  0 0.80887141E+02</rscale>
<asrwt>0</asrwt>
<pdfrwt beam="1">  1        2 0.14247185E+00 0.78369740E+02</pdfrwt>
<pdfrwt beam="2">  1        2 0.88585982E-01 0.83485406E+02</pdfrwt>
<totfact> 0.26143307E+02</totfact>
</mgrwt>
</event>
<event>
13    1  0.1595792E-008  0.6779019E+02  0.7546771E-02  0.1620274E+00
         -1   -1    0    0    0  501  0.00000000000E+00  0.00000000000E+00  0.62206157375E+03  0.62206157375E+03  0.00000000000E+00 0.  1.
         -3   -1    0    0    0  502 -0.00000000000E+00 -0.00000000000E+00 -0.24826563080E+03  0.24826563080E+03  0.00000000000E+00 0.  1.
         24    2    1    2    0    0  0.56544693854E+02  0.82521857436E+02 -0.40552950771E+01  0.13192213928E+03  0.85906030378E+02 0.  0.
         25    2    1    2    0    0 -0.10808993993E+02 -0.12183187178E+03  0.20356192134E+03  0.26836986734E+03  0.12500036219E+03 0.  0.
         24    2    1    2    0    0  0.61029868682E+01  0.28789490150E+01  0.23968934627E+03  0.25005440793E+03  0.70927353063E+02 0.  0.
        -11    1    5    5    0    0 -0.23073598091E+02 -0.65820060392E+01  0.19105561132E+03  0.19255638226E+03  0.00000000000E+00 0.  1.
         12    1    5    5    0    0  0.29176584959E+02  0.94609550542E+01  0.48633734951E+02  0.57498025668E+02  0.00000000000E+00 0. -1.
        -13    1    3    3    0    0 -0.47722270795E+01  0.49245952018E+02 -0.29568786840E+02  0.57638972030E+02  0.00000000000E+00 0.  1.
         14    1    3    3    0    0  0.61316920934E+02  0.33275905418E+02  0.25513491763E+02  0.74283167246E+02  0.00000000000E+00 0. -1.
          5    1    4    4  503    0  0.92464238048E+01  0.13480308519E+02  0.86831993294E+02  0.88482202336E+02  0.47000000000E+01 0. -1.
         -5    1    4    4    0  503 -0.20055417798E+02 -0.13531218030E+03  0.11672992804E+03  0.17988766501E+03  0.47000000000E+01 0. -1.
         -2    1    1    2    0  501  0.93077656637E+01  0.69820986266E+01  0.68703314815E+02  0.69681630790E+02  0.00000000000E+00 0.  1.
         -4    1    1    2    0  502 -0.61146452393E+02  0.29448966707E+02 -0.13410334440E+03  0.15029915921E+03  0.00000000000E+00 0.  1.
<mgrwt>
<rscale>  0 0.28085065E+02</rscale>
<asrwt>0</asrwt>
<pdfrwt beam="1">  1       -1 0.91479643E-01 0.11635472E+02</pdfrwt>
<pdfrwt beam="2">  1       -3 0.36509652E-01 0.67790193E+02</pdfrwt>
<totfact> 0.43409798E+01</totfact>
</mgrwt>
</event>
<event>
13    1  0.1595792E-008  0.4776408E+02  0.7546771E-02  0.1470670E+00
          2   -1    0    0  503    0  0.00000000000E+00  0.00000000000E+00  0.13714519303E+04  0.13714519303E+04  0.00000000000E+00 0. -1.
         -3   -1    0    0    0  501 -0.00000000000E+00 -0.00000000000E+00 -0.23716106607E+04  0.23716106607E+04  0.00000000000E+00 0.  1.
         24    2    1    2    0    0  0.20013887315E+02  0.19351964426E+02 -0.47558523351E+03  0.48276802044E+03  0.78157488522E+02 0.  0.
         25    2    1    2    0    0  0.78352211304E+02  0.27708506881E+02 -0.14491732924E+03  0.20864868360E+03  0.12500564181E+03 0.  0.
         24    2    1    2    0    0 -0.12241988592E+02 -0.37659855392E+02  0.16489800481E+03  0.18704064815E+03  0.78896901562E+02 0.  0.
        -11    1    5    5    0    0 -0.20057502674E+01 -0.57721572038E+01 -0.84829924938E+01  0.10454759422E+02  0.00000000000E+00 0.  1.
         12    1    5    5    0    0 -0.10236238324E+02 -0.31887698188E+02  0.17338099731E+03  0.17658588873E+03  0.00000000000E+00 0. -1.
        -11    1    3    3    0    0 -0.20610054660E+02 -0.73302247019E+01 -0.52142555489E+02  0.56545138078E+02  0.00000000000E+00 0.  1.
         12    1    3    3    0    0  0.40623941974E+02  0.26682189128E+02 -0.42344267802E+03  0.42622288236E+03  0.00000000000E+00 0. -1.
          5    1    4    4  502    0  0.25073368608E+02 -0.32889017456E+02 -0.11527434580E+03  0.12255866384E+03  0.47000000000E+01 0.  1.
         -5    1    4    4    0  502  0.53278842696E+02  0.60597524337E+02 -0.29642983441E+02  0.86090019759E+02  0.47000000000E+01 0.  1.
          1    1    1    2  503    0 -0.46824081537E+02  0.92983614263E+01  0.11592563901E+04  0.11602389117E+04  0.00000000000E+00 0. -1.
         -4    1    1    2    0  501 -0.39300028490E+02 -0.18698977341E+02 -0.17038105626E+04  0.17043663272E+04  0.00000000000E+00 0.  1.
<mgrwt>
<rscale>  0 0.45593610E+02</rscale>
<asrwt>0</asrwt>
<pdfrwt beam="1">  1        2 0.20168411E+00 0.47764085E+02</pdfrwt>
<pdfrwt beam="2">  1       -3 0.34876627E+00 0.43521765E+02</pdfrwt>
<totfact> 0.35033497E-01</totfact>
</mgrwt>
</event>
<event>
13    1  0.1595792E-008  0.1047007E+03  0.7546771E-02  0.1472093E+00
          2   -1    0    0  503    0  0.00000000000E+00  0.00000000000E+00  0.31922657258E+03  0.31922657258E+03  0.00000000000E+00 0. -1.
         -1   -1    0    0    0  501 -0.00000000000E+00 -0.00000000000E+00 -0.77836296360E+03  0.77836296360E+03  0.00000000000E+00 0.  1.
         24    2    1    2    0    0 -0.43379160551E+02 -0.27676639031E+02 -0.30839992174E+03  0.32254492587E+03  0.79227328314E+02 0.  0.
         25    2    1    2    0    0  0.10219714868E+03 -0.74512348056E+02 -0.18086999704E+03  0.25364269720E+03  0.12499725919E+03 0.  0.
         24    2    1    2    0    0  0.40817991225E+01  0.26950601111E+02 -0.37598145524E+02  0.95210191675E+02  0.83116569152E+02 0.  0.
        -11    1    3    3    0    0 -0.28490328019E+02 -0.52390365372E+02 -0.25466102921E+03  0.26155054765E+03  0.00000000000E+00 0.  1.
         12    1    3    3    0    0 -0.14888832532E+02  0.24713726341E+02 -0.53738892531E+02  0.60994378219E+02  0.00000000000E+00 0. -1.
        -13    1    5    5    0    0  0.32452774150E+02  0.20013243693E+02  0.99533209483E+01  0.39405343179E+02  0.00000000000E+00 0.  1.
         14    1    5    5    0    0 -0.28370975028E+02  0.69373574186E+01 -0.47551466472E+02  0.55804848496E+02  0.00000000000E+00 0. -1.
          5    1    4    4  502    0  0.50959478133E+02 -0.60112834235E+02 -0.18389781640E+03  0.20012725483E+03  0.47000000000E+01 0.  1.
         -5    1    4    4    0  502  0.51237670551E+02 -0.14399513821E+02  0.30278193614E+01  0.53515442368E+02  0.47000000000E+01 0.  1.
          1    1    1    2  503    0 -0.50944321315E+02  0.90837250015E+02  0.23538192005E+03  0.25739343067E+03  0.00000000000E+00 0. -1.
         -2    1    1    2    0  501 -0.11955465940E+02 -0.15598864040E+02 -0.16765024677E+03  0.16879829077E+03  0.00000000000E+00 0.  1.
<mgrwt>
<rscale>  0 0.45362204E+02</rscale>
<asrwt>0</asrwt>
<pdfrwt beam="1">  1        2 0.46945084E-01 0.10470073E+03</pdfrwt>
<pdfrwt beam="2">  1       -1 0.11446514E+00 0.19653441E+02</pdfrwt>
<totfact> 0.10350852E+02</totfact>
</mgrwt>
</event>
<event>
13    1  0.1595792E-008  0.8994080E+02  0.7546771E-02  0.1304443E+00
          2   -1    0    0  502    0  0.00000000000E+00  0.00000000000E+00  0.20751950369E+04  0.20751950369E+04  0.00000000000E+00 0. -1.
          2   -1    0    0  503    0 -0.00000000000E+00 -0.00000000000E+00 -0.36908187294E+03  0.36908187294E+03  0.00000000000E+00 0. -1.
         24    2    1    2    0    0  0.86997954176E+02  0.19956040501E+02  0.38197780344E+02  0.12602048338E+03  0.80344285573E+02 0.  0.
         25    2    1    2    0    0  0.17907864930E+02  0.17627469303E+03  0.16216245309E+03  0.27077661198E+03  0.12501941199E+03 0.  0.
         24    2    1    2    0    0 -0.88363995431E+02 -0.27477475104E+02  0.33419562793E+03  0.35602289334E+03  0.80637308512E+02 0.  0.
        -13    1    3    3    0    0  0.86241467214E+02  0.79075007532E+01  0.56998799066E+02  0.10367729901E+03  0.00000000000E+00 0.  1.
         14    1    3    3    0    0  0.75648696138E+00  0.12048539747E+02 -0.18801018723E+02  0.22343184365E+02  0.00000000000E+00 0. -1.
        -13    1    5    5    0    0 -0.55100464279E+02 -0.48246201915E+02  0.27808232088E+03  0.28756483503E+03  0.00000000000E+00 0.  1.
         14    1    5    5    0    0 -0.33263531151E+02  0.20768726811E+02  0.56113307055E+02  0.68458058303E+02  0.00000000000E+00 0. -1.
          5    1    4    4  501    0  0.25066056384E+02  0.15123210100E+03  0.59084026604E+02  0.16435470104E+03  0.47000000000E+01 0. -1.
         -5    1    4    4    0  501 -0.71581914546E+01  0.25042592030E+02  0.10307842648E+03  0.10642191093E+03  0.47000000000E+01 0. -1.
          1    1    1    2  502    0  0.18429153451E+02 -0.86821096242E+02  0.14224510330E+04  0.14252173441E+04  0.00000000000E+00 0. -1.
          1    1    1    2  503    0 -0.34970977125E+02 -0.81932162184E+02 -0.25089373043E+03  0.26623957710E+03  0.00000000000E+00 0. -1.
<mgrwt>
<rscale>  0 0.89346179E+02</rscale>
<asrwt>0</asrwt>
<pdfrwt beam="1">  1        2 0.30517574E+00 0.88755487E+02</pdfrwt>
<pdfrwt beam="2">  1        2 0.54276747E-01 0.89940803E+02</pdfrwt>
<totfact> 0.12152900E+02</totfact>
</mgrwt>
</event>
<event>
13    1  0.1595792E-008  0.6993314E+02  0.7546771E-02  0.1414356E+00
         -1   -1    0    0    0  501 -0.00000000000E+00  0.00000000000E+00  0.13882457213E+04  0.13882457213E+04  0.00000000000E+00 0.  1.
          2   -1    0    0  503    0  0.00000000000E+00 -0.00000000000E+00 -0.19403783946E+04  0.19403783946E+04  0.00000000000E+00 0. -1.
         24    2    1    2    0    0  0.64821843510E+02 -0.36221219130E+03  0.10275807107E+04  0.10943975512E+04  0.79902066181E+02 0.  0.
         25    2    1    2    0    0 -0.11895865571E+03  0.17751785571E+03 -0.77730740305E+02  0.25948365480E+03  0.12500379296E+03 0.  0.
         24    2    1    2    0    0  0.87215342541E+02  0.18148121253E+03 -0.22534974523E+03  0.31277855475E+03  0.80659594342E+02 0.  0.
        -11    1    5    5    0    0  0.16975237394E+02 -0.15036642439E+01 -0.47673434000E+01  0.17695967163E+02  0.00000000000E+00 0.  1.
         12    1    5    5    0    0  0.70240105147E+02  0.18298487678E+03 -0.22058240183E+03  0.29508258758E+03  0.00000000000E+00 0. -1.
        -13    1    3    3    0    0  0.65637015266E+02 -0.33042254481E+03  0.98658000102E+03  0.10425101315E+04  0.00000000000E+00 0.  1.
         14    1    3    3    0    0 -0.81517175561E+00 -0.31789646484E+02  0.41000709653E+02  0.51887419676E+02  0.00000000000E+00 0. -1.
          5    1    4    4  502    0 -0.40931495777E+02  0.15284437694E+03 -0.80240403996E+02  0.17747507809E+03  0.47000000000E+01 0. -1.
         -5    1    4    4    0  502 -0.78027159935E+02  0.24673478770E+02  0.25096636901E+01  0.82008576709E+02  0.47000000000E+01 0. -1.
          1    1    1    2  503    0 -0.62776717708E+02 -0.30883585020E+02 -0.14657997447E+04  0.14674684336E+04  0.00000000000E+00 0. -1.
         -2    1    1    2    0  501  0.29698187369E+02  0.34096708075E+02  0.18916684614E+03  0.19449592158E+03  0.00000000000E+00 0.  1.
<mgrwt>
<rscale>  0 0.56233083E+02</rscale>
<asrwt>0</asrwt>
<pdfrwt beam="2">  1        2 0.28534976E+00 0.69933140E+02</pdfrwt>
<pdfrwt beam="1">  1       -1 0.20415378E+00 0.45216898E+02</pdfrwt>
<totfact> 0.21527326E+00</totfact>
</mgrwt>
</event>
<event>
13    1  0.1595792E-008  0.4505425E+02  0.7546771E-02  0.1648331E+00
          2   -1    0    0  503    0  0.00000000000E+00  0.00000000000E+00  0.18854384220E+04  0.18854384220E+04  0.00000000000E+00 0. -1.
          2   -1    0    0  502    0 -0.00000000000E+00 -0.00000000000E+00 -0.22295539466E+04  0.22295539466E+04  0.00000000000E+00 0. -1.
         24    2    1    2    0    0  0.71482518312E+03 -0.48608181908E+03  0.61884468369E+02  0.87054380783E+03  0.82257258967E+02 0.  0.
         25    2    1    2    0    0  0.15245123105E+03  0.83196921792E+03 -0.29779499460E+03  0.90538489828E+03  0.12500319120E+03 0.  0.
         24    2    1    2    0    0 -0.80995387005E+03 -0.34408177862E+03  0.70116976120E+03  0.11281973059E+04  0.82295717547E+02 0.  0.
        -11    1    5    5    0    0 -0.20485580131E+03 -0.10721021335E+03  0.14537595084E+03  0.27311919790E+03  0.00000000000E+00 0.  1.
         12    1    5    5    0    0 -0.60509806874E+03 -0.23687156528E+03  0.55579381035E+03  0.85507810804E+03  0.00000000000E+00 0. -1.
        -11    1    3    3    0    0  0.52140789954E+03 -0.39718926210E+03  0.44389277618E+02  0.65695959967E+03  0.00000000000E+00 0.  1.
         12    1    3    3    0    0  0.19341728358E+03 -0.88892556983E+02  0.17495190751E+02  0.21358420816E+03  0.00000000000E+00 0. -1.
          5    1    4    4  501    0 -0.21152172130E+02  0.77321187894E+02 -0.20667208293E+02  0.82916849806E+02  0.47000000000E+01 0. -1.
         -5    1    4    4    0  501  0.17360340318E+03  0.75464803003E+03 -0.27712778631E+03  0.82246804848E+03  0.47000000000E+01 0. -1.
          1    1    1    2  502    0 -0.44647198209E+02  0.60169360814E+01 -0.10093411260E+04  0.10103460222E+04  0.00000000000E+00 0. -1.
          1    1    1    2  503    0 -0.12675345920E+02 -0.78225563017E+01  0.19996636647E+03  0.20052033438E+03  0.00000000000E+00 0. -1.
<mgrwt>
<rscale>  0 0.25905146E+02</rscale>
<asrwt>0</asrwt>
<pdfrwt beam="1">  1        2 0.27727036E+00 0.14894858E+02</pdfrwt>
<pdfrwt beam="2">  1        2 0.32787558E+00 0.45054248E+02</pdfrwt>
<totfact> 0.15624901E+01</totfact>
</mgrwt>
</event>
<event>
13    1  0.1595792E-008  0.7223410E+02  0.7546771E-02  0.1443762E+00
          2   -1    0    0  503    0  0.00000000000E+00  0.00000000000E+00  0.16275945943E+04  0.16275945943E+04  0.00000000000E+00 0. -1.
          2   -1    0    0  502    0 -0.00000000000E+00 -0.00000000000E+00 -0.29306805337E+04  0.29306805337E+04  0.00000000000E+00 0. -1.
         24    2    1    2    0    0 -0.28991382559E+02  0.41280158644E+02 -0.23736599534E+02  0.98636685773E+02  0.81370866178E+02 0.  0.
         25    2    1    2    0    0  0.51914052561E+01 -0.16687653217E+02  0.37876027427E+02  0.13177029049E+03  0.12499355001E+03 0.  0.
         24    2    1    2    0    0 -0.11284626408E+02  0.25546161767E+02  0.61440389184E+03  0.61997731518E+03  0.78101087430E+02 0.  0.
        -11    1    3    3    0    0  0.70337150410E+00 -0.13340055605E+02 -0.33166144636E+02  0.35755348762E+02  0.00000000000E+00 0.  1.
         12    1    3    3    0    0 -0.29694754063E+02  0.54620214249E+02  0.94295451028E+01  0.62881337011E+02  0.00000000000E+00 0. -1.
        -13    1    5    5    0    0  0.31944486661E+02  0.22324445675E+02  0.25324522222E+03  0.25622641097E+03  0.00000000000E+00 0.  1.
         14    1    5    5    0    0 -0.43229113068E+02  0.32217160917E+01  0.36115866962E+03  0.36375090421E+03  0.00000000000E+00 0. -1.
          5    1    4    4  501    0  0.46190080949E+02  0.27539841564E+02  0.45761426505E+02  0.70768387061E+02  0.47000000000E+01 0. -1.
         -5    1    4    4    0  501 -0.40998675693E+02 -0.44227494781E+02 -0.78853990778E+01  0.61001903428E+02  0.47000000000E+01 0. -1.
          1    1    1    2  502    0  0.76051162349E+01 -0.71844386350E+02 -0.28189518741E+04  0.28198775013E+04  0.00000000000E+00 0. -1.
          1    1    1    2  503    0  0.27479487476E+02  0.21705719156E+02  0.88732261502E+03  0.88801333526E+03  0.00000000000E+00 0. -1.
<mgrwt>
<rscale>  0 0.50294073E+02</rscale>
<asrwt>0</asrwt>
<pdfrwt beam="1">  1        2 0.23935215E+00 0.35018002E+02</pdfrwt>
<pdfrwt beam="2">  1        2 0.43098243E+00 0.72234097E+02</pdfrwt>
<totfact> 0.78486109E+00</totfact>
</mgrwt>
</event>
<event>
13    1  0.1595792E-008  0.2719209E+02  0.7546771E-02  0.1765074E+00
          2   -1    0    0  502    0  0.00000000000E+00  0.00000000000E+00  0.10015721464E+04  0.10015721464E+04  0.00000000000E+00 0. -1.
          2   -1    0    0  503    0 -0.00000000000E+00 -0.00000000000E+00 -0.16697986407E+04  0.16697986407E+04  0.00000000000E+00 0. -1.
         24    2    1    2    0    0 -0.23662508806E+02 -0.22885371932E+03 -0.35772939104E+03  0.43922802999E+03  0.10962210518E+03 0.  0.
         25    2    1    2    0    0  0.42033963286E+02  0.24529605083E+03  0.22816695008E+03  0.36003013532E+03  0.12499813842E+03 0.  0.
         24    2    1    2    0    0 -0.22295104171E+00 -0.35723195754E+02  0.35280903439E+02  0.89931239792E+02  0.74610249437E+02 0.  0.
        -13    1    3    3    0    0  0.19733522775E+02 -0.19025513746E+03 -0.23163818662E+03  0.30040419230E+03  0.00000000000E+00 0.  1.
         14    1    3    3    0    0 -0.43396031581E+02 -0.38598581857E+02 -0.12609120442E+03  0.13882383769E+03  0.00000000000E+00 0. -1.
        -13    1    5    5    0    0  0.34006868735E+02 -0.11865296723E+02  0.11665801827E+01  0.36036277511E+02  0.00000000000E+00 0.  1.
         14    1    5    5    0    0 -0.34229819777E+02 -0.23857899030E+02  0.34114323256E+02  0.53894962281E+02  0.00000000000E+00 0. -1.
          5    1    4    4  501    0 -0.80981734831E+00  0.15040986386E+03  0.20321550928E+03  0.25286837716E+03  0.47000000000E+01 0.  1.
         -5    1    4    4    0  501  0.42843780634E+02  0.94886186961E+02  0.24951440798E+02  0.10716175816E+03  0.47000000000E+01 0.  1.
          1    1    1    2  502    0 -0.11323703103E+02 -0.70424588858E+01  0.60388766572E+03  0.60403487920E+03  0.00000000000E+00 0. -1.
          1    1    1    2  503    0 -0.68248003349E+01  0.26323323130E+02 -0.11778326226E+04  0.11781465028E+04  0.00000000000E+00 0. -1.
<mgrwt>
<rscale>  0 0.19042238E+02</rscale>
<asrwt>0</asrwt>
<pdfrwt beam="1">  1        2 0.14729002E+00 0.13335010E+02</pdfrwt>
<pdfrwt beam="2">  1        2 0.24555862E+00 0.27192093E+02</pdfrwt>
<totfact> 0.75443896E+01</totfact>
</mgrwt>
</event>
<event>
13    1  0.1595792E-008  0.1414641E+03  0.7546771E-02  0.1297348E+00
          2   -1    0    0  503    0  0.00000000000E+00  0.00000000000E+00  0.18583536222E+04  0.18583536222E+04  0.00000000000E+00 0. -1.
          2   -1    0    0  502    0 -0.00000000000E+00 -0.00000000000E+00 -0.65672388249E+03  0.65672388249E+03  0.00000000000E+00 0. -1.
         24    2    1    2    0    0  0.67601412318E+02 -0.67657420053E+02 -0.24215442924E+03  0.27263799456E+03  0.80902602176E+02 0.  0.
         25    2    1    2    0    0 -0.46992939172E+02  0.28720531222E+03  0.25682701331E+03  0.40777387149E+03  0.12499675116E+03 0.  0.
         24    2    1    2    0    0  0.53104790087E+02 -0.16095554322E+03  0.52492419541E+03  0.55756697197E+03  0.81293983033E+02 0.  0.
        -11    1    5    5    0    0 -0.21806823789E+02 -0.37893106144E+02  0.13302309826E+03  0.14002346134E+03  0.00000000000E+00 0.  1.
         12    1    5    5    0    0  0.74911613877E+02 -0.12306243708E+03  0.39190109716E+03  0.41754351063E+03  0.00000000000E+00 0. -1.
        -11    1    3    3    0    0  0.51825602671E+02 -0.50206188105E+02 -0.75891533163E+02  0.10471904899E+03  0.00000000000E+00 0.  1.
         12    1    3    3    0    0  0.15775809647E+02 -0.17451231948E+02 -0.16626289608E+03  0.16791894557E+03  0.00000000000E+00 0. -1.
          5    1    4    4  501    0 -0.77656849997E+02  0.15802449730E+03  0.18991510792E+03  0.25902155569E+03  0.47000000000E+01 0.  1.
         -5    1    4    4    0  501  0.30663910824E+02  0.12918081492E+03  0.66911905389E+02  0.14875231579E+03  0.47000000000E+01 0.  1.
          1    1    1    2  502    0  0.71239011701E+01  0.59814752772E+02 -0.29921475025E+03  0.30521798994E+03  0.00000000000E+00 0. -1.
          1    1    1    2  503    0 -0.80837164403E+02 -0.11840710172E+03  0.96124771044E+03  0.97188067669E+03  0.00000000000E+00 0. -1.
<mgrwt>
<rscale>  0 0.92311651E+02</rscale>
<asrwt>0</asrwt>
<pdfrwt beam="1">  1        2 0.27328730E+00 0.14146409E+03</pdfrwt>
<pdfrwt beam="2">  1        2 0.96577041E-01 0.60237485E+02</pdfrwt>
<totfact> 0.80178591E+01</totfact>
</mgrwt>
</event>
<event>
13    1  0.1595792E-008  0.5015273E+02  0.7546771E-02  0.1512876E+00
          2   -1    0    0  502    0  0.00000000000E+00  0.00000000000E+00  0.18366199901E+04  0.18366199901E+04  0.00000000000E+00 0. -1.
          2   -1    0    0  503    0 -0.00000000000E+00 -0.00000000000E+00 -0.73908645712E+03  0.73908645712E+03  0.00000000000E+00 0. -1.
         24    2    1    2    0    0 -0.22363373418E+02 -0.17355674785E+02 -0.22862917972E+03  0.24379309688E+03  0.79764856598E+02 0.  0.
         25    2    1    2    0    0 -0.21324591941E+02  0.91439414846E+02 -0.11045814852E+03  0.19142160750E+03  0.12500129773E+03 0.  0.
         24    2    1    2    0    0  0.36930118177E+02 -0.92353232823E+02  0.82637762934E+02  0.15256299542E+03  0.80953779812E+02 0.  0.
        -11    1    3    3    0    0  0.27330358844E+02 -0.13136241816E+02 -0.51375929415E+02  0.59657317127E+02  0.00000000000E+00 0.  1.
         12    1    3    3    0    0 -0.49693732262E+02 -0.42194329696E+01 -0.17725325030E+03  0.18413577975E+03  0.00000000000E+00 0. -1.
        -13    1    5    5    0    0  0.59649670598E+02 -0.83288283058E+02  0.57459839454E+02  0.11745916076E+03  0.00000000000E+00 0.  1.
         14    1    5    5    0    0 -0.22719552422E+02 -0.90649497655E+01  0.25177923480E+02  0.35103834651E+02  0.00000000000E+00 0. -1.
          5    1    4    4  501    0 -0.69118094172E+02  0.81721337043E+02 -0.80289348529E+02  0.13388113145E+03  0.47000000000E+01 0. -1.
         -5    1    4    4    0  501  0.47793502231E+02  0.97180778030E+01 -0.30168799991E+02  0.57540476055E+02  0.47000000000E+01 0. -1.
          1    1    1    2  502    0  0.11893445953E+02  0.48750399197E+02  0.16698245348E+04  0.16705783527E+04  0.00000000000E+00 0. -1.
          1    1    1    2  503    0 -0.51355987701E+01 -0.30480906434E+02 -0.31584143650E+03  0.31735039474E+03  0.00000000000E+00 0. -1.
<mgrwt>
<rscale>  0 0.39373172E+02</rscale>
<asrwt>0</asrwt>
<pdfrwt beam="1">  1        2 0.27009117E+00 0.50152727E+02</pdfrwt>
<pdfrwt beam="2">  1        2 0.10868918E+00 0.30910517E+02</pdfrwt>
<totfact> 0.81163160E+01</totfact>
</mgrwt>
</event>
<event>
13    1  0.1595792E-008  0.7330563E+02  0.7546771E-02  0.1443926E+00
         -3   -1    0    0    0  501 -0.00000000000E+00  0.00000000000E+00  0.50494540613E+03  0.50494540613E+03  0.00000000000E+00 0.  1.
          2   -1    0    0  503    0  0.00000000000E+00 -0.00000000000E+00 -0.15803039329E+04  0.15803039329E+04  0.00000000000E+00 0. -1.
         24    2    1    2    0    0  0.24026272299E+02  0.18816273771E+02  0.20294138990E+03  0.22018623938E+03  0.79783822672E+02 0.  0.
         25    2    1    2    0    0 -0.77893628025E+02 -0.82698840476E+02 -0.28983195526E+02  0.17138121188E+03  0.12499991464E+03 0.  0.
         24    2    1    2    0    0  0.12881285095E+02 -0.23104235542E+02 -0.11958709924E+03  0.14614238290E+03  0.79729471144E+02 0.  0.
        -11    1    3    3    0    0  0.30408090418E+02  0.18322331720E+02  0.28229349650E+02  0.45356983853E+02  0.00000000000E+00 0.  1.
         12    1    3    3    0    0 -0.63818181195E+01  0.49394205138E+00  0.17471204025E+03  0.17482925553E+03  0.00000000000E+00 0. -1.
        -11    1    5    5    0    0 -0.25605186601E+02 -0.31261880870E+02 -0.37563803600E+02  0.55172186084E+02  0.00000000000E+00 0.  1.
         12    1    5    5    0    0  0.38486471696E+02  0.81576453273E+01 -0.82023295637E+02  0.90970196813E+02  0.00000000000E+00 0. -1.
          5    1    4    4  502    0 -0.74999397871E+02  0.86822252768E+01 -0.10026179998E+01  0.75653063121E+02  0.47000000000E+01 0.  1.
         -5    1    4    4    0  502 -0.28942301544E+01 -0.91381065753E+02 -0.27980577526E+02  0.95728148760E+02  0.47000000000E+01 0.  1.
          1    1    1    2  503    0  0.31103667838E+02  0.14843345751E+02 -0.13320595067E+04  0.13325052693E+04  0.00000000000E+00 0. -1.
         -4    1    1    2    0  501  0.98824027922E+01  0.72143456497E+02  0.20232988483E+03  0.21503423563E+03  0.00000000000E+00 0.  1.
<mgrwt>
<rscale>  0 0.50263315E+02</rscale>
<asrwt>0</asrwt>
<pdfrwt beam="2">  1        2 0.23239763E+00 0.34463939E+02</pdfrwt>
<pdfrwt beam="1">  1       -3 0.74256679E-01 0.73305634E+02</pdfrwt>
<totfact> 0.16858071E+01</totfact>
</mgrwt>
</event>
<event>
13    1  0.1595792E-008  0.2247989E+02  0.7546771E-02  0.1733351E+00
          2   -1    0    0  502    0  0.00000000000E+00  0.00000000000E+00  0.27337753356E+04  0.27337753356E+04  0.00000000000E+00 0. -1.
          2   -1    0    0  503    0 -0.00000000000E+00 -0.00000000000E+00 -0.15076475078E+04  0.15076475078E+04  0.00000000000E+00 0. -1.
         24    2    1    2    0    0 -0.55327019915E+03  0.55748473226E+01 -0.75343411531E+02  0.56396122708E+03  0.78972424316E+02 0.  0.
         25    2    1    2    0    0 -0.29266281029E+03  0.52601103479E+03  0.82961851698E+02  0.62036079491E+03  0.12500287106E+03 0.  0.
         24    2    1    2    0    0  0.81930375458E+03 -0.52696759650E+03  0.10786467390E+04  0.14547754056E+04  0.62763071729E+02 0.  0.
        -11    1    3    3    0    0 -0.21599811978E+03  0.34855392086E+02 -0.89749844689E+01  0.21897633766E+03  0.00000000000E+00 0.  1.
         12    1    3    3    0    0 -0.33727207936E+03 -0.29280544764E+02 -0.66368427062E+02  0.34498488942E+03  0.00000000000E+00 0. -1.
        -13    1    5    5    0    0  0.52020970079E+03 -0.29905811526E+03  0.67244447192E+03  0.90124106482E+03  0.00000000000E+00 0.  1.
         14    1    5    5    0    0  0.29909405379E+03 -0.22790948123E+03  0.40620226708E+03  0.55353434078E+03  0.00000000000E+00 0. -1.
          5    1    4    4  501    0 -0.10116298387E+03  0.91639851820E+02 -0.87093861474E+01  0.13685669569E+03  0.47000000000E+01 0. -1.
         -5    1    4    4    0  501 -0.19149982642E+03  0.43437118297E+03  0.91671237846E+02  0.48350409922E+03  0.47000000000E+01 0. -1.
          1    1    1    2  502    0  0.13272995543E+02  0.13463973785E+02  0.87081862453E+03  0.87102383884E+03  0.00000000000E+00 0. -1.
          1    1    1    2  503    0  0.13356259316E+02 -0.18082259402E+02 -0.73095597592E+03  0.73130157698E+03  0.00000000000E+00 0. -1.
<mgrwt>
<rscale>  0 0.20615849E+02</rscale>
<asrwt>0</asrwt>
<pdfrwt beam="1">  1        2 0.40202578E+00 0.18906375E+02</pdfrwt>
<pdfrwt beam="2">  1        2 0.22171287E+00 0.22479891E+02</pdfrwt>
<totfact> 0.14546207E+01</totfact>
</mgrwt>
</event>
<event>
13    1  0.1595792E-008  0.6579302E+02  0.7546771E-02  0.1402279E+00
          2   -1    0    0  502    0  0.00000000000E+00  0.00000000000E+00  0.59471114983E+03  0.59471114983E+03  0.00000000000E+00 0. -1.
          2   -1    0    0  503    0 -0.00000000000E+00 -0.00000000000E+00 -0.10307246374E+04  0.10307246374E+04  0.00000000000E+00 0. -1.
         24    2    1    2    0    0  0.31989587925E+02  0.11070943007E+03 -0.52345310912E+02  0.14927479027E+03  0.79139243063E+02 0.  0.
         25    2    1    2    0    0 -0.26641259535E+02  0.83316814280E+01 -0.50672275391E+02  0.13773630967E+03  0.12499775152E+03 0.  0.
         24    2    1    2    0    0  0.10229068609E+02 -0.55295151872E+02  0.60617243461E+02  0.11531656498E+03  0.80382039588E+02 0.  0.
        -11    1    5    5    0    0 -0.34229653929E+02 -0.21533475969E+02  0.14682447219E+02  0.43022483096E+02  0.00000000000E+00 0.  1.
         12    1    5    5    0    0  0.44458722537E+02 -0.33761675902E+02  0.45934796241E+02  0.72294081882E+02  0.00000000000E+00 0. -1.
        -13    1    3    3    0    0 -0.20767878089E+02  0.52067111913E+02 -0.41292146541E+02  0.69622771198E+02  0.00000000000E+00 0.  1.
         14    1    3    3    0    0  0.52757466014E+02  0.58642318161E+02 -0.11053164370E+02  0.79652019071E+02  0.00000000000E+00 0. -1.
          5    1    4    4  501    0 -0.15062222507E+02 -0.25240542021E+02 -0.83808746451E+02  0.88937908060E+02  0.47000000000E+01 0.  1.
         -5    1    4    4    0  501 -0.11579037028E+02  0.33572223449E+02  0.33136471060E+02  0.48798401615E+02  0.47000000000E+01 0.  1.
          1    1    1    2  502    0  0.42145767087E+02 -0.31844974151E+02  0.41171201921E+03  0.41508692442E+03  0.00000000000E+00 0. -1.
          1    1    1    2  503    0 -0.57723164085E+02 -0.31900985479E+02 -0.80532516394E+03  0.80802119788E+03  0.00000000000E+00 0. -1.
<mgrwt>
<rscale>  0 0.58952917E+02</rscale>
<asrwt>0</asrwt>
<pdfrwt beam="1">  1        2 0.87457524E-01 0.52823935E+02</pdfrwt>
<pdfrwt beam="2">  1        2 0.15157715E+00 0.65793024E+02</pdfrwt>
<totfact> 0.24883493E+02</totfact>
</mgrwt>
</event>
<event>
13    1  0.1595792E-008  0.7945813E+02  0.7546771E-02  0.1345755E+00
          2   -1    0    0  503    0  0.00000000000E+00  0.00000000000E+00  0.19437597927E+04  0.19437597927E+04  0.00000000000E+00 0. -1.
         -1   -1    0    0    0  501 -0.00000000000E+00 -0.00000000000E+00 -0.69632980390E+03  0.69632980390E+03  0.00000000000E+00 0.  1.
         24    2    1    2    0    0 -0.60251604935E+02 -0.11793360486E+02 -0.41368474831E+03  0.42622305635E+03  0.82229456629E+02 0.  0.
         25    2    1    2    0    0 -0.82192977384E+02  0.30876131579E+02  0.35575954965E+02  0.15684120847E+03  0.12499798026E+03 0.  0.
         24    2    1    2    0    0 -0.10623580215E+01 -0.22271748050E+02  0.49317838485E+03  0.49998754084E+03  0.79154673541E+02 0.  0.
        -11    1    3    3    0    0 -0.57205981558E+02 -0.40712821217E+02 -0.23775462337E+03  0.24790586736E+03  0.00000000000E+00 0.  1.
         12    1    3    3    0    0 -0.30456233773E+01  0.28919460731E+02 -0.17593012493E+03  0.17831718899E+03  0.00000000000E+00 0. -1.
        -13    1    5    5    0    0 -0.37009628782E+02 -0.17206515902E+01  0.30892466151E+03  0.31113842539E+03  0.00000000000E+00 0.  1.
         14    1    5    5    0    0  0.35947270761E+02 -0.20551096460E+02  0.18425372334E+03  0.18884911545E+03  0.00000000000E+00 0. -1.
          5    1    4    4  502    0 -0.83205934363E+02  0.15802870523E+02  0.75712504773E+02  0.11369886371E+03  0.47000000000E+01 0.  1.
         -5    1    4    4    0  502  0.10129569790E+01  0.15073261056E+02 -0.40136549808E+02  0.43142344758E+02  0.47000000000E+01 0.  1.
          1    1    1    2  503    0  0.67483864304E+02 -0.17253799264E+02  0.13364642198E+04  0.13382781386E+04  0.00000000000E+00 0. -1.
         -2    1    1    2    0  501  0.76023076036E+02  0.20442776221E+02 -0.20410382242E+03  0.21875965240E+03  0.00000000000E+00 0.  1.
<mgrwt>
<rscale>  0 0.74395063E+02</rscale>
<asrwt>0</asrwt>
<pdfrwt beam="1">  1        2 0.28584703E+00 0.69654616E+02</pdfrwt>
<pdfrwt beam="2">  1       -1 0.10240144E+00 0.79458128E+02</pdfrwt>
<totfact> 0.11774663E+01</totfact>
</mgrwt>
</event>
<event>
13    1  0.1595792E-008  0.1151703E+03  0.7546771E-02  0.1319623E+00
          2   -1    0    0  503    0  0.00000000000E+00  0.00000000000E+00  0.15469474041E+04  0.15469474041E+04  0.00000000000E+00 0. -1.
          2   -1    0    0  502    0 -0.00000000000E+00 -0.00000000000E+00 -0.22402816116E+04  0.22402816116E+04  0.00000000000E+00 0. -1.
         24    2    1    2    0    0  0.21114909151E+02 -0.53634902985E+01 -0.12624394180E+03  0.15171149909E+03  0.81266473392E+02 0.  0.
         25    2    1    2    0    0 -0.14250125593E+02 -0.12952689066E+01  0.24024193284E+03  0.27119505131E+03  0.12500330300E+03 0.  0.
         24    2    1    2    0    0 -0.12105859491E+03  0.12140322168E+01  0.68021337924E+03  0.69558456108E+03  0.80566637232E+02 0.  0.
        -13    1    5    5    0    0 -0.37670612583E+02  0.94108943355E+01  0.73623503197E+02  0.83234969860E+02  0.00000000000E+00 0.  1.
         14    1    5    5    0    0 -0.83387982332E+02 -0.81968621187E+01  0.60658987604E+03  0.61234959122E+03  0.00000000000E+00 0. -1.
        -13    1    3    3    0    0  0.23486957345E+02  0.34020414402E+02 -0.85636355702E+02  0.95092645243E+02  0.00000000000E+00 0.  1.
         14    1    3    3    0    0 -0.23720481939E+01 -0.39383904700E+02 -0.40607586103E+02  0.56618853849E+02  0.00000000000E+00 0. -1.
          5    1    4    4  501    0 -0.65167044760E+02  0.22585528251E+02  0.14079522112E+03  0.15685099330E+03  0.47000000000E+01 0.  1.
         -5    1    4    4    0  501  0.50916919167E+02 -0.23880797157E+02  0.99446711717E+02  0.11434405801E+03  0.47000000000E+01 0.  1.
          1    1    1    2  502    0  0.12604130480E+03 -0.53801703725E+02 -0.20743294986E+04  0.20788515826E+04  0.00000000000E+00 0. -1.
          1    1    1    2  503    0 -0.11847493447E+02  0.59246430714E+02  0.58678392078E+03  0.58988632154E+03  0.00000000000E+00 0. -1.
<mgrwt>
<rscale>  0 0.83417733E+02</rscale>
<asrwt>0</asrwt>
<pdfrwt beam="1">  1        2 0.22749227E+00 0.60419390E+02</pdfrwt>
<pdfrwt beam="2">  1        2 0.32945317E+00 0.11517028E+03</pdfrwt>
<totfact> 0.17000556E+01</totfact>
</mgrwt>
</event>
<event>
13    1  0.1595792E-008  0.2223774E+03  0.7546771E-02  0.1335957E+00
          2   -1    0    0  502    0  0.00000000000E+00  0.00000000000E+00  0.35721795762E+04  0.35721795762E+04  0.00000000000E+00 0. -1.
          2   -1    0    0  503    0 -0.00000000000E+00 -0.00000000000E+00 -0.13697069458E+04  0.13697069458E+04  0.00000000000E+00 0. -1.
         24    2    1    2    0    0  0.11679482568E+03 -0.19475264248E+03  0.14025891913E+03  0.27860925101E+03  0.79880706663E+02 0.  0.
         25    2    1    2    0    0 -0.17887716568E+02 -0.57294268879E+02  0.26383177393E+02  0.14115595746E+03  0.12500531439E+03 0.  0.
         24    2    1    2    0    0  0.32148661220E+02  0.10064445160E+03  0.22785828628E+03  0.26422000796E+03  0.82036406092E+02 0.  0.
        -11    1    3    3    0    0  0.30343566807E+02 -0.84296670353E+01  0.37395921840E+02  0.48890145256E+02  0.00000000000E+00 0.  1.
         12    1    3    3    0    0  0.86451258870E+02 -0.18632297544E+03  0.10286299729E+03  0.22971910576E+03  0.00000000000E+00 0. -1.
        -13    1    5    5    0    0  0.39478526642E+01  0.66251271918E+02  0.20233124884E+03  0.21293837331E+03  0.00000000000E+00 0.  1.
         14    1    5    5    0    0  0.28200808556E+02  0.34393179684E+02  0.25527037441E+02  0.51281634651E+02  0.00000000000E+00 0. -1.
          5    1    4    4  501    0 -0.42370922842E-01 -0.17474788968E+02 -0.49938157696E+02  0.53115719319E+02  0.47000000000E+01 0. -1.
         -5    1    4    4    0  501 -0.17845345646E+02 -0.39819479911E+02  0.76321335088E+02  0.88040238137E+02  0.47000000000E+01 0. -1.
          1    1    1    2  502    0  0.26796313660E+02 -0.39776581658E+01  0.30228630007E+04  0.30229843839E+04  0.00000000000E+00 0. -1.
          1    1    1    2  503    0 -0.15785208399E+03  0.15538011792E+03 -0.12148907531E+04  0.12349169217E+04  0.00000000000E+00 0. -1.
<mgrwt>
<rscale>  0 0.77615648E+02</rscale>
<asrwt>0</asrwt>
<pdfrwt beam="1">  1        2 0.52532052E+00 0.27089928E+02</pdfrwt>
<pdfrwt beam="2">  1        2 0.20142749E+00 0.22237744E+03</pdfrwt>
<totfact> 0.49252917E+00</totfact>
</mgrwt>
</event>
<event>
13    1  0.1595792E-008  0.1254255E+03  0.7546771E-02  0.1345101E+00
          2   -1    0    0  503    0  0.00000000000E+00  0.00000000000E+00  0.44302826132E+03  0.44302826132E+03  0.00000000000E+00 0. -1.
          2   -1    0    0  502    0 -0.00000000000E+00 -0.00000000000E+00 -0.11516234107E+04  0.11516234107E+04  0.00000000000E+00 0. -1.
         24    2    1    2    0    0  0.61309924607E+02 -0.65854325029E+01 -0.26474674376E+03  0.28396998988E+03  0.82133075219E+02 0.  0.
         25    2    1    2    0    0 -0.63466618260E+02  0.18380271103E+03 -0.25088313466E+03  0.34114246438E+03  0.12499754212E+03 0.  0.
         24    2    1    2    0    0  0.12583469661E+02 -0.98809096677E+01 -0.26686797109E+02  0.82579082260E+02  0.76492768302E+02 0.  0.
        -11    1    5    5    0    0 -0.21693322964E+01  0.32751973793E+02 -0.82559885736E+01  0.33846109633E+02  0.00000000000E+00 0.  1.
         12    1    5    5    0    0  0.14752801957E+02 -0.42632883461E+02 -0.18430808535E+02  0.48732972627E+02  0.00000000000E+00 0. -1.
        -13    1    3    3    0    0 -0.11900116082E+02 -0.23024389627E+02 -0.47208492869E+02  0.53855149052E+02  0.00000000000E+00 0.  1.
         14    1    3    3    0    0  0.73210040689E+02  0.16438957124E+02 -0.21753825089E+03  0.23011484083E+03  0.00000000000E+00 0. -1.
          5    1    4    4  501    0  0.20343019096E+02  0.12814396056E+03 -0.12890970645E+03  0.18296042050E+03  0.47000000000E+01 0. -1.
         -5    1    4    4    0  501 -0.83809637356E+02  0.55658750474E+02 -0.12197342820E+03  0.15818204388E+03  0.47000000000E+01 0. -1.
          1    1    1    2  502    0 -0.55572616763E+01 -0.44026072446E+02 -0.51507145561E+03  0.51697947986E+03  0.00000000000E+00 0. -1.
          1    1    1    2  503    0 -0.48695143318E+01 -0.12331029642E+03  0.34879298179E+03  0.36998065560E+03  0.00000000000E+00 0. -1.
<mgrwt>
<rscale>  0 0.74604357E+02</rscale>
<asrwt>0</asrwt>
<pdfrwt beam="1">  1        2 0.65151216E-01 0.12542551E+03</pdfrwt>
<pdfrwt beam="2">  1        2 0.16935638E+00 0.44375424E+02</pdfrwt>
<totfact> 0.29731472E+02</totfact>
</mgrwt>
</event>
<event>
13    1  0.1595792E-008  0.1107639E+03  0.7546771E-02  0.1502515E+00
         -1   -1    0    0    0  501 -0.00000000000E+00  0.00000000000E+00  0.16100966138E+04  0.16100966138E+04  0.00000000000E+00 0.  1.
          2   -1    0    0  503    0  0.00000000000E+00 -0.00000000000E+00 -0.32000901295E+04  0.32000901295E+04  0.00000000000E+00 0. -1.
         24    2    1    2    0    0  0.44730709151E+02  0.50405615828E+02  0.85546315630E+03  0.86194099183E+03  0.81138764855E+02 0.  0.
         25    2    1    2    0    0  0.28357281450E+02 -0.14722284620E+03  0.43489860637E+03  0.47669836237E+03  0.12500331599E+03 0.  0.
         24    2    1    2    0    0 -0.59290232115E+02 -0.11427456393E+02 -0.73476417008E+03  0.74170653137E+03  0.81266688506E+02 0.  0.
        -11    1    3    3    0    0  0.52179030084E+02  0.27738418971E+02  0.79099438576E+03  0.79319870737E+03  0.00000000000E+00 0.  1.
         12    1    3    3    0    0 -0.74483209334E+01  0.22667196857E+02  0.64468770544E+02  0.68742284465E+02  0.00000000000E+00 0. -1.
        -13    1    5    5    0    0 -0.72945167920E+01  0.27189962546E+02 -0.38272865951E+03  0.38376259699E+03  0.00000000000E+00 0.  1.
         14    1    5    5    0    0 -0.51995715323E+02 -0.38617418939E+02 -0.35203551058E+03  0.35794393439E+03  0.00000000000E+00 0. -1.
          5    1    4    4  502    0  0.42968385048E+01 -0.35401383204E+02  0.10999931526E+02  0.37613950172E+02  0.47000000000E+01 0.  1.
         -5    1    4    4    0  502  0.24060442946E+02 -0.11182146299E+03  0.42389867484E+03  0.43908441219E+03  0.47000000000E+01 0.  1.
          1    1    1    2  503    0 -0.25310567749E+02  0.98602187689E+02 -0.24364594126E+04  0.24385851401E+04  0.00000000000E+00 0. -1.
         -2    1    1    2    0  501  0.11512809263E+02  0.96424990753E+01  0.29086830437E+03  0.29125571763E+03  0.00000000000E+00 0.  1.
<mgrwt>
<rscale>  0 0.40784638E+02</rscale>
<asrwt>0</asrwt>
<pdfrwt beam="2">  1        2 0.47060148E+00 0.11076389E+03</pdfrwt>
<pdfrwt beam="1">  1       -1 0.23677892E+00 0.15017409E+02</pdfrwt>
<totfact> 0.33380723E-01</totfact>
</mgrwt>
</event>
<event>
13    1  0.1595792E-008  0.1019740E+03  0.7546771E-02  0.1366514E+00
         -1   -1    0    0    0  501 -0.00000000000E+00  0.00000000000E+00  0.68156791034E+03  0.68156791034E+03  0.00000000000E+00 0.  1.
          2   -1    0    0  503    0  0.00000000000E+00 -0.00000000000E+00 -0.46092561323E+03  0.46092561323E+03  0.00000000000E+00 0. -1.
         24    2    1    2    0    0  0.12419300639E+02 -0.45074787669E+01  0.23757278393E+03  0.25101112288E+03  0.79944979520E+02 0.  0.
         25    2    1    2    0    0  0.46253816039E+02  0.71368251730E+01 -0.99024561862E+01  0.13383602349E+03  0.12499469098E+03 0.  0.
         24    2    1    2    0    0  0.54511926571E+02  0.87304364270E+02  0.27380861307E+01  0.13071490712E+03  0.80531283790E+02 0.  0.
        -11    1    3    3    0    0 -0.22496640966E+02  0.26189766572E+02  0.99055873657E+02  0.10490028043E+03  0.00000000000E+00 0.  1.
         12    1    3    3    0    0  0.34915941605E+02 -0.30697245339E+02  0.13851691028E+03  0.14611084245E+03  0.00000000000E+00 0. -1.
        -13    1    5    5    0    0 -0.19475907572E+02  0.18152103345E+02  0.11628766754E+02  0.29052332915E+02  0.00000000000E+00 0.  1.
         14    1    5    5    0    0  0.73987834143E+02  0.69152260924E+02 -0.88906806230E+01  0.10166257421E+03  0.00000000000E+00 0. -1.
          5    1    4    4  502    0  0.64578627678E+02  0.34566366532E+02 -0.44473778952E+02  0.85820975654E+02  0.47000000000E+01 0. -1.
         -5    1    4    4    0  502 -0.18324811639E+02 -0.27429541359E+02  0.34571322765E+02  0.48015047834E+02  0.47000000000E+01 0. -1.
          1    1    1    2  503    0 -0.82451364482E+02 -0.56328497102E+02 -0.30875166051E+03  0.32449763475E+03  0.00000000000E+00 0. -1.
         -2    1    1    2    0  501 -0.30733678768E+02 -0.33605213574E+02  0.29898554374E+03  0.30243383533E+03  0.00000000000E+00 0.  1.
<mgrwt>
<rscale>  0 0.68145967E+02</rscale>
<asrwt>0</asrwt>
<pdfrwt beam="2">  1        2 0.67783178E-01 0.10197404E+03</pdfrwt>
<pdfrwt beam="1">  1       -1 0.10023058E+00 0.45539756E+02</pdfrwt>
<totfact> 0.90132439E+01</totfact>
</mgrwt>
</event>
<event>
13    1  0.1595792E-008  0.1237756E+03  0.7546771E-02  0.1255427E+00
          2   -1    0    0  503    0  0.00000000000E+00  0.00000000000E+00  0.23747452328E+04  0.23747452328E+04  0.00000000000E+00 0. -1.
          2   -1    0    0  502    0 -0.00000000000E+00 -0.00000000000E+00 -0.18474401623E+04  0.18474401623E+04  0.00000000000E+00 0. -1.
         24    2    1    2    0    0  0.69949286729E+02 -0.98443629491E+02 -0.13216417576E+03  0.19695861613E+03  0.82105275163E+02 0.  0.
         25    2    1    2    0    0  0.11816973460E+03 -0.52237520210E+02 -0.13689047057E+03  0.22595765958E+03  0.12500007318E+03 0.  0.
         24    2    1    2    0    0  0.16340413966E+02 -0.38879328508E+02 -0.46783550412E+02  0.10226527862E+03  0.80565968679E+02 0.  0.
        -11    1    3    3    0    0 -0.79961559797E+01 -0.55728259677E+02 -0.61768592336E+02  0.83575932159E+02  0.00000000000E+00 0.  1.
         12    1    3    3    0    0  0.77945442708E+02 -0.42715369814E+02 -0.70395583427E+02  0.11338268397E+03  0.00000000000E+00 0. -1.
        -13    1    5    5    0    0  0.20364141520E+02  0.16164018735E+02 -0.38500279707E+02  0.46456918742E+02  0.00000000000E+00 0.  1.
         14    1    5    5    0    0 -0.40237275543E+01 -0.55043347243E+02 -0.82832707048E+01  0.55808359882E+02  0.00000000000E+00 0. -1.
          5    1    4    4  501    0 -0.22121762378E+02 -0.35097900785E+01  0.14602031144E+01  0.22932797262E+02  0.47000000000E+01 0.  1.
         -5    1    4    4    0  501  0.14029149698E+03 -0.48727730132E+02 -0.13835067368E+03  0.20302486231E+03  0.47000000000E+01 0.  1.
          1    1    1    2  502    0 -0.19392323989E+03  0.87232116492E+02 -0.14178324701E+04  0.14336891498E+04  0.00000000000E+00 0. -1.
          1    1    1    2  503    0 -0.10536195410E+02  0.10232836172E+03  0.22609757374E+04  0.22633146909E+04  0.00000000000E+00 0. -1.
<mgrwt>
<rscale>  0 0.11282472E+03</rscale>
<asrwt>0</asrwt>
<pdfrwt beam="1">  1        2 0.34922724E+00 0.10284274E+03</pdfrwt>
<pdfrwt beam="2">  1        2 0.27168238E+00 0.12377555E+03</pdfrwt>
<totfact> 0.99482099E+00</totfact>
</mgrwt>
</event>
<event>
13    1  0.1595792E-008  0.4226911E+02  0.7546771E-02  0.1498088E+00
          2   -1    0    0  503    0  0.00000000000E+00  0.00000000000E+00  0.68577830462E+03  0.68577830462E+03  0.00000000000E+00 0. -1.
         -1   -1    0    0    0  501 -0.00000000000E+00 -0.00000000000E+00 -0.14572315828E+04  0.14572315828E+04  0.00000000000E+00 0.  1.
         24    2    1    2    0    0  0.28336447004E+02  0.66564000219E+02 -0.70038733293E+02  0.12866687365E+03  0.80100061549E+02 0.  0.
         25    2    1    2    0    0  0.25066725516E+02 -0.24330924480E+02 -0.46794779735E+02  0.13796251405E+03  0.12499427690E+03 0.  0.
         24    2    1    2    0    0 -0.25759552540E+02 -0.14849234405E+02  0.25825941290E+03  0.27285597560E+03  0.82875839417E+02 0.  0.
        -11    1    5    5    0    0 -0.35852716642E+02  0.26469648253E+02  0.15204850454E+03  0.15844496616E+03  0.00000000000E+00 0.  1.
         12    1    5    5    0    0  0.10093164102E+02 -0.41318882658E+02  0.10621090836E+03  0.11441100944E+03  0.00000000000E+00 0. -1.
        -13    1    3    3    0    0  0.43890105629E+02  0.66620547390E+02 -0.77668992089E+02  0.11134231468E+03  0.00000000000E+00 0.  1.
         14    1    3    3    0    0 -0.15553658625E+02 -0.56547170878E-01  0.76302587958E+01  0.17324558970E+02  0.00000000000E+00 0. -1.
          5    1    4    4  502    0  0.44094824698E+02  0.34327148936E+02  0.63270142855E+01  0.56434278848E+02  0.47000000000E+01 0.  1.
         -5    1    4    4    0  502 -0.19028099183E+02 -0.58658073416E+02 -0.53121794020E+02  0.81528235203E+02  0.47000000000E+01 0.  1.
          1    1    1    2  503    0 -0.40985033608E+02  0.10927068044E+02  0.34369156886E+03  0.34629910237E+03  0.00000000000E+00 0. -1.
         -2    1    1    2    0  501  0.13341413629E+02 -0.38310909380E+02 -0.12565707469E+04  0.12572254218E+04  0.00000000000E+00 0.  1.
<mgrwt>
<rscale>  0 0.41409546E+02</rscale>
<asrwt>0</asrwt>
<pdfrwt beam="1">  1        2 0.10084975E+00 0.42269109E+02</pdfrwt>
<pdfrwt beam="2">  1       -1 0.21429876E+00 0.40567464E+02</pdfrwt>
<totfact> 0.88297112E+00</totfact>
</mgrwt>
</event>
<event>
13    1  0.1595792E-008  0.1351955E+03  0.7546771E-02  0.1286786E+00
          2   -1    0    0  502    0  0.00000000000E+00  0.00000000000E+00  0.98930834354E+03  0.98930834354E+03  0.00000000000E+00 0. -1.
          2   -1    0    0  503    0 -0.00000000000E+00 -0.00000000000E+00 -0.18507993555E+04  0.18507993555E+04  0.00000000000E+00 0. -1.
         24    2    1    2    0    0 -0.13012204933E+03 -0.59374980575E+02 -0.18027217147E+03  0.24281751432E+03  0.77492924932E+02 0.  0.
         25    2    1    2    0    0  0.11659715094E+03 -0.13508681907E+03 -0.12972276088E+03  0.25356989318E+03  0.12500540686E+03 0.  0.
         24    2    1    2    0    0 -0.31027981285E+01 -0.16842014656E+02  0.17254829043E+02  0.77047514094E+02  0.73111623486E+02 0.  0.
        -11    1    3    3    0    0 -0.43433105614E+02  0.17439045357E+02 -0.54465987118E+02  0.71812942558E+02  0.00000000000E+00 0.  1.
         12    1    3    3    0    0 -0.86688943716E+02 -0.76814025932E+02 -0.12580618435E+03  0.17100457176E+03  0.00000000000E+00 0. -1.
        -11    1    5    5    0    0 -0.24263100038E+02 -0.33692546079E+02  0.25553625722E+02  0.48753189355E+02  0.00000000000E+00 0.  1.
         12    1    5    5    0    0  0.21160301910E+02  0.16850531423E+02 -0.82987966784E+01  0.28294324739E+02  0.00000000000E+00 0. -1.
          5    1    4    4  501    0  0.51212250567E+02  0.36830672985E+01 -0.74212950339E+02  0.90365433607E+02  0.47000000000E+01 0. -1.
         -5    1    4    4    0  501  0.65384900374E+02 -0.13876988637E+03 -0.55509810541E+02  0.16320445958E+03  0.47000000000E+01 0. -1.
          1    1    1    2  502    0 -0.18676593591E+01  0.79391506841E+02  0.84396401568E+03  0.84769201912E+03  0.00000000000E+00 0. -1.
          1    1    1    2  503    0  0.18495355876E+02  0.13191230746E+03 -0.14127149243E+04  0.14189807583E+04  0.00000000000E+00 0. -1.
<mgrwt>
<rscale>  0 0.96976338E+02</rscale>
<asrwt>0</asrwt>
<pdfrwt beam="1">  1        2 0.14548652E+00 0.69561571E+02</pdfrwt>
<pdfrwt beam="2">  1        2 0.27217637E+00 0.13519548E+03</pdfrwt>
<totfact> 0.49589024E+01</totfact>
</mgrwt>
</event>
<event>
13    1  0.1595792E-008  0.9735335E+02  0.7546771E-02  0.1505292E+00
          2   -1    0    0  503    0  0.00000000000E+00  0.00000000000E+00  0.13110261454E+04  0.13110261454E+04  0.00000000000E+00 0. -1.
         -3   -1    0    0    0  501 -0.00000000000E+00 -0.00000000000E+00 -0.22058959752E+03  0.22058959752E+03  0.00000000000E+00 0.  1.
         24    2    1    2    0    0 -0.46865264478E+01 -0.94342555611E+01  0.54606779667E+02  0.98968699331E+02  0.81865342811E+02 0.  0.
         25    2    1    2    0    0 -0.72818077928E+02 -0.18636516829E+02  0.21701459422E+03  0.26148850844E+03  0.12502445244E+03 0.  0.
         24    2    1    2    0    0  0.16796461711E+02 -0.11355837451E+03  0.58902700991E+03  0.60535564801E+03  0.79529973135E+02 0.  0.
        -11    1    5    5    0    0 -0.12275175185E+02  0.76271499527E+01  0.80009512392E+02  0.81304215238E+02  0.00000000000E+00 0.  1.
         12    1    5    5    0    0  0.29071636896E+02 -0.12118552447E+03  0.50901749752E+03  0.52405143277E+03  0.00000000000E+00 0. -1.
        -13    1    3    3    0    0  0.19109292983E+02  0.30119094841E+02  0.17434585685E+02  0.39702515416E+02  0.00000000000E+00 0.  1.
         14    1    3    3    0    0 -0.23795819431E+02 -0.39553350402E+02  0.37172193983E+02  0.59266183915E+02  0.00000000000E+00 0. -1.
          5    1    4    4  502    0 -0.51132216412E+02 -0.15403465937E+02  0.11594177176E+02  0.54847837355E+02  0.47000000000E+01 0. -1.
         -5    1    4    4    0  502 -0.21685861516E+02 -0.32330508923E+01  0.20542041704E+03  0.20664067108E+03  0.47000000000E+01 0. -1.
          1    1    1    2  503    0 -0.79037565380E+01  0.14784898892E+02  0.36662200016E+03  0.36700511386E+03  0.00000000000E+00 0. -1.
         -4    1    1    2    0  501  0.68611899202E+02  0.12684424801E+03 -0.13683383608E+03  0.19879777328E+03  0.00000000000E+00 0.  1.
<mgrwt>
<rscale>  0 0.40399522E+02</rscale>
<asrwt>0</asrwt>
<pdfrwt beam="1">  1        2 0.19279796E+00 0.16764922E+02</pdfrwt>
<pdfrwt beam="2">  1       -3 0.32439647E-01 0.97353353E+02</pdfrwt>
<totfact> 0.12417849E+02</totfact>
</mgrwt>
</event>
<event>
13    1  0.1595792E-008  0.3257126E+02  0.7546771E-02  0.1642589E+00
          2   -1    0    0  502    0  0.00000000000E+00  0.00000000000E+00  0.20722611252E+04  0.20722611252E+04  0.00000000000E+00 0. -1.
          2   -1    0    0  503    0 -0.00000000000E+00 -0.00000000000E+00 -0.30945660584E+03  0.30945660584E+03  0.00000000000E+00 0. -1.
         24    2    1    2    0    0  0.30305087835E+02 -0.18071667310E+00 -0.37441411469E+02  0.94401184937E+02  0.81186781051E+02 0.  0.
         25    2    1    2    0    0 -0.24004192950E+02  0.43153471387E+02  0.34319047834E+02  0.13870949668E+03  0.12499641616E+03 0.  0.
         24    2    1    2    0    0  0.29341720875E+02 -0.30785148429E+02  0.19774729773E+03  0.21206339432E+03  0.63704218868E+02 0.  0.
        -13    1    3    3    0    0  0.52450760757E+02  0.76619074588E+01 -0.45197528581E+02  0.69660632496E+02  0.00000000000E+00 0.  1.
         14    1    3    3    0    0 -0.22145672922E+02 -0.78426241319E+01  0.77561171111E+01  0.24740552441E+02  0.00000000000E+00 0. -1.
        -13    1    5    5    0    0  0.23621279672E+01  0.19414063844E+02  0.53871834983E+02  0.57311954494E+02  0.00000000000E+00 0.  1.
         14    1    5    5    0    0  0.26979592908E+02 -0.50199212273E+02  0.14387546275E+03  0.15475143983E+03  0.00000000000E+00 0. -1.
          5    1    4    4  501    0 -0.50244361984E+02  0.63115113466E+02 -0.11964087588E+02  0.81689918905E+02  0.47000000000E+01 0. -1.
         -5    1    4    4    0  501  0.26240169034E+02 -0.19961642079E+02  0.46283135422E+02  0.57019577777E+02  0.47000000000E+01 0. -1.
          1    1    1    2  502    0 -0.19514839633E+02 -0.26080111965E+02  0.17515946677E+04  0.17518975087E+04  0.00000000000E+00 0. -1.
          1    1    1    2  503    0 -0.16127776127E+02  0.13892505680E+02 -0.18341508247E+03  0.18464614633E+03  0.00000000000E+00 0. -1.
<mgrwt>
<rscale>  0 0.26331005E+02</rscale>
<asrwt>0</asrwt>
<pdfrwt beam="1">  1        2 0.30474428E+00 0.32571260E+02</pdfrwt>
<pdfrwt beam="2">  1        2 0.45508325E-01 0.21286307E+02</pdfrwt>
<totfact> 0.16141622E+02</totfact>
</mgrwt>
</event>
<event>
13    1  0.1595792E-008  0.6538275E+02  0.7546771E-02  0.1393036E+00
          2   -1    0    0  502    0  0.00000000000E+00  0.00000000000E+00  0.21052182794E+04  0.21052182794E+04  0.00000000000E+00 0. -1.
          2   -1    0    0  503    0 -0.00000000000E+00 -0.00000000000E+00 -0.57737290805E+03  0.57737290805E+03  0.00000000000E+00 0. -1.
         24    2    1    2    0    0  0.54063387623E+02  0.37332585268E+02 -0.98700197420E+02  0.14163559498E+03  0.77474776475E+02 0.  0.
         25    2    1    2    0    0 -0.14068403983E+03 -0.17881364276E+03  0.74391639942E+03  0.78790988530E+03  0.12499624042E+03 0.  0.
         24    2    1    2    0    0  0.93691075561E+02  0.27828739639E+02  0.59895199474E+03  0.61221933237E+03  0.80725228629E+02 0.  0.
        -13    1    3    3    0    0  0.51273872716E+02 -0.11594439614E+02 -0.50242066588E+02  0.72716616452E+02  0.00000000000E+00 0.  1.
         14    1    3    3    0    0  0.27895149069E+01  0.48927024882E+02 -0.48458130833E+02  0.68918978526E+02  0.00000000000E+00 0. -1.
        -13    1    5    5    0    0 -0.87132943872E+01  0.18126927152E+02  0.53555258088E+02  0.57207277998E+02  0.00000000000E+00 0.  1.
         14    1    5    5    0    0  0.10240436995E+03  0.97018124869E+01  0.54539673665E+03  0.55501205437E+03  0.00000000000E+00 0. -1.
          5    1    4    4  501    0 -0.76531682444E+02 -0.26390376349E+02  0.37389541425E+03  0.38258779538E+03  0.47000000000E+01 0. -1.
         -5    1    4    4    0  501 -0.64152357384E+02 -0.15242326641E+03  0.37002098518E+03  0.40532208992E+03  0.47000000000E+01 0. -1.
          1    1    1    2  502    0 -0.25763312559E+02  0.51076254814E+02  0.70860436270E+03  0.71090975160E+03  0.00000000000E+00 0. -1.
          1    1    1    2  503    0  0.18692889204E+02  0.62576063040E+02 -0.42492718807E+03  0.42991662323E+03  0.00000000000E+00 0. -1.
<mgrwt>
<rscale>  0 0.61157901E+02</rscale>
<asrwt>0</asrwt>
<pdfrwt beam="1">  1        2 0.30959092E+00 0.57206049E+02</pdfrwt>
<pdfrwt beam="2">  1        2 0.84907781E-01 0.65382751E+02</pdfrwt>
<totfact> 0.77156582E+01</totfact>
</mgrwt>
</event>
<event>
13    1  0.1595792E-008  0.1229770E+03  0.7546771E-02  0.1241947E+00
          2   -1    0    0  502    0  0.00000000000E+00  0.00000000000E+00  0.22441666127E+04  0.22441666127E+04  0.00000000000E+00 0. -1.
          2   -1    0    0  503    0 -0.00000000000E+00 -0.00000000000E+00 -0.41521621838E+04  0.41521621838E+04  0.00000000000E+00 0. -1.
         24    2    1    2    0    0 -0.21808439709E+02 -0.21006291217E+01 -0.21267792334E+03  0.23007643833E+03  0.84989691805E+02 0.  0.
         25    2    1    2    0    0 -0.11985670155E+03 -0.10130189241E+03 -0.17555448499E+03  0.26659620359E+03  0.12500582489E+03 0.  0.
         24    2    1    2    0    0  0.39060672965E+02  0.14171631720E+02 -0.16907319573E+03  0.19416696709E+03  0.85956351004E+02 0.  0.
        -13    1    3    3    0    0 -0.48522476163E+02 -0.22819204380E+02 -0.12038117862E+03  0.13178306017E+03  0.00000000000E+00 0.  1.
         14    1    3    3    0    0  0.26714036454E+02  0.20718575259E+02 -0.92296744711E+02  0.98293378152E+02  0.00000000000E+00 0. -1.
        -13    1    5    5    0    0 -0.46027643824E+01  0.42420310321E+02 -0.63866668513E+02  0.76808980690E+02  0.00000000000E+00 0.  1.
         14    1    5    5    0    0  0.43663437347E+02 -0.28248678601E+02 -0.10520652721E+03  0.11735798640E+03  0.00000000000E+00 0. -1.
          5    1    4    4  501    0  0.11496543593E+01  0.24942142462E+02 -0.27251586188E+02  0.37258168575E+02  0.47000000000E+01 0.  1.
         -5    1    4    4    0  501 -0.12100635591E+03 -0.12624403487E+03 -0.14830289880E+03  0.22933803501E+03  0.47000000000E+01 0.  1.
          1    1    1    2  502    0 -0.82603369081E+02  0.13873782830E+03  0.21717960820E+04  0.21777901009E+04  0.00000000000E+00 0. -1.
          1    1    1    2  503    0  0.18520783737E+03 -0.49506938485E+02 -0.35224860490E+04  0.35276990866E+04  0.00000000000E+00 0. -1.
<mgrwt>
<rscale>  0 0.12069993E+03</rscale>
<asrwt>0</asrwt>
<pdfrwt beam="1">  1        2 0.33002451E+00 0.12297702E+03</pdfrwt>
<pdfrwt beam="2">  1        2 0.61061208E+00 0.11846500E+03</pdfrwt>
<totfact> 0.59494196E-01</totfact>
</mgrwt>
</event>
<event>
13    1  0.1595792E-008  0.1283542E+03  0.7546771E-02  0.1302371E+00
          2   -1    0    0  502    0  0.00000000000E+00  0.00000000000E+00  0.20002125982E+04  0.20002125982E+04  0.00000000000E+00 0. -1.
          2   -1    0    0  503    0 -0.00000000000E+00 -0.00000000000E+00 -0.44903716129E+03  0.44903716129E+03  0.00000000000E+00 0. -1.
         24    2    1    2    0    0 -0.17178267681E+01  0.15604171398E+03 -0.12436397419E+03  0.21537130552E+03  0.81033534613E+02 0.  0.
         25    2    1    2    0    0 -0.10561858458E+03 -0.12934783431E+03  0.34159761021E+03  0.40024979739E+03  0.12499930145E+03 0.  0.
         24    2    1    2    0    0  0.17899571522E+03  0.36197647578E+02  0.25231213074E+03  0.32194503502E+03  0.81470598959E+02 0.  0.
        -11    1    5    5    0    0  0.53481688445E+02 -0.26449531040E+02  0.77561046398E+02  0.97854916123E+02  0.00000000000E+00 0.  1.
         12    1    5    5    0    0  0.12551402678E+03  0.62647178618E+02  0.17475108434E+03  0.22409011889E+03  0.00000000000E+00 0. -1.
        -13    1    3    3    0    0  0.23743433206E+02  0.73102232171E+02 -0.19551427965E+02  0.79309175410E+02  0.00000000000E+00 0.  1.
         14    1    3    3    0    0 -0.25461259974E+02  0.82939481813E+02 -0.10481254623E+03  0.13606213011E+03  0.00000000000E+00 0. -1.
          5    1    4    4  501    0 -0.58334747232E+02 -0.12276682743E+03  0.31988125462E+03  0.34759278432E+03  0.47000000000E+01 0.  1.
         -5    1    4    4    0  501 -0.47283837348E+02 -0.65810068808E+01  0.21716355590E+02  0.52657013076E+02  0.47000000000E+01 0.  1.
          1    1    1    2  502    0 -0.45547958754E+02 -0.12064928582E+03  0.12886961812E+04  0.12951327014E+04  0.00000000000E+00 0. -1.
          1    1    1    2  503    0 -0.26111345121E+02  0.57757758562E+02 -0.20706651107E+03  0.21655092016E+03  0.00000000000E+00 0. -1.
<mgrwt>
<rscale>  0 0.90198872E+02</rscale>
<asrwt>0</asrwt>
<pdfrwt beam="1">  1        2 0.29414891E+00 0.12835422E+03</pdfrwt>
<pdfrwt beam="2">  1        2 0.66034877E-01 0.63385811E+02</pdfrwt>
<totfact> 0.10363997E+02</totfact>
</mgrwt>
</event>
<event>
13    1  0.1595792E-008  0.8545732E+02  0.7546771E-02  0.1337380E+00
          2   -1    0    0  503    0  0.00000000000E+00  0.00000000000E+00  0.13269355747E+04  0.13269355747E+04  0.00000000000E+00 0. -1.
         -3   -1    0    0    0  501 -0.00000000000E+00 -0.00000000000E+00 -0.76793022483E+03  0.76793022483E+03  0.00000000000E+00 0.  1.
         24    2    1    2    0    0 -0.78880554942E+02  0.35912426047E+02  0.72161693465E+02  0.13880669799E+03  0.80920609918E+02 0.  0.
         25    2    1    2    0    0 -0.53151164554E+02 -0.15645330139E+03  0.20759831338E+03  0.29329240728E+03  0.12498277738E+03 0.  0.
         24    2    1    2    0    0  0.12488192852E+02  0.26181016602E+02  0.31770936778E+03  0.32882611689E+03  0.79661610474E+02 0.  0.
        -11    1    3    3    0    0 -0.54820687718E+02 -0.12314025643E+02  0.10939290456E+02  0.57241690271E+02  0.00000000000E+00 0.  1.
         12    1    3    3    0    0 -0.24059867225E+02  0.48226451690E+02  0.61222403008E+02  0.81565007715E+02  0.00000000000E+00 0. -1.
        -13    1    5    5    0    0 -0.23728588237E+02  0.38036441323E+02  0.20513585041E+03  0.20997746044E+03  0.00000000000E+00 0.  1.
         14    1    5    5    0    0  0.36216781089E+02 -0.11855424721E+02  0.11257351737E+03  0.11884865646E+03  0.00000000000E+00 0. -1.
          5    1    4    4  502    0  0.24510731597E+02 -0.31914960164E+01  0.65882503525E+02  0.70523442066E+02  0.47000000000E+01 0.  1.
         -5    1    4    4    0  502 -0.77661896150E+02 -0.15326180538E+03  0.14171580986E+03  0.22276896522E+03  0.47000000000E+01 0.  1.
          1    1    1    2  503    0  0.69347814051E+02  0.46109447310E+02  0.64328115740E+03  0.64864924876E+03  0.00000000000E+00 0. -1.
         -4    1    1    2    0  501  0.50195712593E+02  0.48250411434E+02 -0.68174518213E+03  0.68529132865E+03  0.00000000000E+00 0.  1.
<mgrwt>
<rscale>  0 0.77136306E+02</rscale>
<asrwt>0</asrwt>
<pdfrwt beam="1">  1        2 0.19513758E+00 0.85457321E+02</pdfrwt>
<pdfrwt beam="2">  1       -3 0.11293092E+00 0.69625511E+02</pdfrwt>
<totfact> 0.82697769E+00</totfact>
</mgrwt>
</event>
<event>
13    1  0.7003319E-008  0.5772101E+02  0.7546771E-02  0.1524004E+00
          2   -1    0    0  503    0  0.00000000000E+00  0.00000000000E+00  0.41790367361E+04  0.41790367361E+04  0.00000000000E+00 0. -1.
          2   -1    0    0  502    0 -0.00000000000E+00 -0.00000000000E+00 -0.23276261508E+04  0.23276261508E+04  0.00000000000E+00 0. -1.
         24    2    1    2    0    0  0.12125171872E+04  0.24229404127E+03 -0.14835646231E+04  0.19339571978E+04  0.10159783622E+03 0.  0.
         25    2    1    2    0    0 -0.52835189283E+03 -0.35377693015E+03 -0.96593635347E+02  0.65518669355E+03  0.12500173619E+03 0.  0.
         24    2    1    2    0    0 -0.75767719579E+03  0.77669954525E+02  0.26313450388E+04  0.27406107487E+04  0.82844481370E+02 0.  0.
        -13    1    5    5    0    0 -0.57127896461E+03  0.67638526322E+02  0.18558168246E+04  0.19429335326E+04  0.00000000000E+00 0.  1.
         14    1    5    5    0    0 -0.18639823118E+03  0.10031428203E+02  0.77552821418E+03  0.79767721613E+03  0.00000000000E+00 0. -1.
        -13    1    3    3    0    0  0.84602336625E+03  0.21374762819E+03 -0.10672523204E+04  0.13785757507E+04  0.00000000000E+00 0.  1.
         14    1    3    3    0    0  0.36649382090E+03  0.28546413077E+02 -0.41631230263E+03  0.55538144710E+03  0.00000000000E+00 0. -1.
          5    1    4    4  501    0 -0.47252176963E+03 -0.31028899332E+03 -0.12468873149E+03  0.57890020894E+03  0.47000000000E+01 0. -1.
         -5    1    4    4    0  501 -0.55830123203E+02 -0.43487936830E+02  0.28095096148E+02  0.76286484610E+02  0.47000000000E+01 0. -1.
          1    1    1    2  502    0  0.18338186809E+02  0.16885033808E+02 -0.18667068228E+03  0.18832773849E+03  0.00000000000E+00 0. -1.
          1    1    1    2  503    0  0.55173714661E+02  0.16927900553E+02  0.98689448723E+03  0.98858050837E+03  0.00000000000E+00 0. -1.
<mgrwt>
<rscale>  0 0.37932252E+02</rscale>
<asrwt>0</asrwt>
<pdfrwt beam="1">  1        2 0.61456423E+00 0.57721010E+02</pdfrwt>
<pdfrwt beam="2">  1        2 0.34229796E+00 0.24927765E+02</pdfrwt>
<totfact> 0.74862265E-01</totfact>
</mgrwt>
</event>
<event>
13    1  0.1595792E-008  0.6430173E+02  0.7546771E-02  0.1451607E+00
          2   -1    0    0  502    0  0.00000000000E+00  0.00000000000E+00  0.24502552434E+04  0.24502552434E+04  0.00000000000E+00 0. -1.
          2   -1    0    0  503    0 -0.00000000000E+00 -0.00000000000E+00 -0.16634513845E+04  0.16634513845E+04  0.00000000000E+00 0. -1.
         24    2    1    2    0    0  0.66095754241E+02 -0.54639715773E+03 -0.33893813072E+03  0.65164104442E+03  0.82695172850E+02 0.  0.
         25    2    1    2    0    0 -0.39446491728E+02  0.65478525428E+03 -0.31546800465E+03  0.73854290626E+03  0.12500322997E+03 0.  0.
         24    2    1    2    0    0 -0.20333162651E+01 -0.19730259474E+02  0.27814003189E+03  0.29046524607E+03  0.81331201420E+02 0.  0.
        -11    1    5    5    0    0  0.31694297987E+02  0.15071689917E+02  0.10815927485E+03  0.11371065517E+03  0.00000000000E+00 0.  1.
         12    1    5    5    0    0 -0.33727614252E+02 -0.34801949390E+02  0.16998075703E+03  0.17675459091E+03  0.00000000000E+00 0. -1.
        -13    1    3    3    0    0  0.79970021919E+02 -0.41107330498E+03 -0.23308666042E+03  0.47927638971E+03  0.00000000000E+00 0.  1.
         14    1    3    3    0    0 -0.13874267678E+02 -0.13532385275E+03 -0.10585147030E+03  0.17236465471E+03  0.00000000000E+00 0. -1.
          5    1    4    4  501    0  0.44308753321E+02  0.24521015534E+03 -0.10442586992E+03  0.27021868591E+03  0.47000000000E+01 0. -1.
         -5    1    4    4    0  501 -0.83755245049E+02  0.40957509893E+03 -0.21104213473E+03  0.46832422036E+03  0.47000000000E+01 0. -1.
          1    1    1    2  502    0  0.11269039125E+02 -0.35369831227E+02  0.17962464808E+04  0.17966300220E+04  0.00000000000E+00 0. -1.
          1    1    1    2  503    0 -0.35884985373E+02 -0.53288005850E+02 -0.63317651837E+03  0.63642740918E+03  0.00000000000E+00 0. -1.
<mgrwt>
<rscale>  0 0.48856789E+02</rscale>
<asrwt>0</asrwt>
<pdfrwt beam="1">  1        2 0.36033166E+00 0.37121641E+02</pdfrwt>
<pdfrwt beam="2">  1        2 0.24462520E+00 0.64301734E+02</pdfrwt>
<totfact> 0.13640879E+01</totfact>
</mgrwt>
</event>
<event>
13    1  0.1595792E-008  0.1011338E+03  0.7546771E-02  0.1422779E+00
          2   -1    0    0  502    0  0.00000000000E+00  0.00000000000E+00  0.34182001245E+04  0.34182001245E+04  0.00000000000E+00 0. -1.
          2   -1    0    0  503    0 -0.00000000000E+00 -0.00000000000E+00 -0.41889181788E+04  0.41889181788E+04  0.00000000000E+00 0. -1.
         24    2    1    2    0    0  0.13025294856E+03 -0.27416644405E+03 -0.15757085805E+04  0.16065350561E+04  0.77228792501E+02 0.  0.
         25    2    1    2    0    0  0.71886496948E+03  0.37458559692E+03 -0.15539642077E+03  0.83477913782E+03  0.12500779012E+03 0.  0.
         24    2    1    2    0    0 -0.82608935432E+03 -0.21011005119E+03  0.22495451545E+03  0.88838606307E+03  0.10979712250E+03 0.  0.
        -11    1    5    5    0    0 -0.17149716072E+03 -0.17493478809E+02  0.83456180420E+02  0.19152606086E+03  0.00000000000E+00 0.  1.
         12    1    5    5    0    0 -0.65459219360E+03 -0.19261657239E+03  0.14149833503E+03  0.69686000222E+03  0.00000000000E+00 0. -1.
        -13    1    3    3    0    0  0.50196018394E+02 -0.19156481711E+03 -0.10198511509E+04  0.10388999420E+04  0.00000000000E+00 0.  1.
         14    1    3    3    0    0  0.80056930164E+02 -0.82601626944E+02 -0.55585742954E+03  0.56763511415E+03  0.00000000000E+00 0. -1.
          5    1    4    4  501    0  0.42803197059E+03  0.25963314459E+03 -0.14749591150E+03  0.52191749494E+03  0.47000000000E+01 0.  1.
         -5    1    4    4    0  501  0.29083299889E+03  0.11495245233E+03 -0.79005092698E+01  0.31286164288E+03  0.47000000000E+01 0.  1.
          1    1    1    2  502    0  0.49577673708E+01  0.10100913500E+03  0.25052837946E+04  0.25073241347E+04  0.00000000000E+00 0. -1.
          1    1    1    2  503    0 -0.27986331086E+02  0.86817633156E+01 -0.17698513632E+04  0.17700939115E+04  0.00000000000E+00 0. -1.
<mgrwt>
<rscale>  0 0.54437339E+02</rscale>
<asrwt>0</asrwt>
<pdfrwt beam="1">  1        2 0.50267649E+00 0.10113381E+03</pdfrwt>
<pdfrwt beam="2">  1        2 0.61601738E+00 0.29302009E+02</pdfrwt>
<totfact> 0.19324481E-01</totfact>
</mgrwt>
</event>
<event>
13    1  0.1595792E-008  0.8134071E+02  0.7546771E-02  0.1352753E+00
          2   -1    0    0  503    0  0.00000000000E+00  0.00000000000E+00  0.23768581571E+04  0.23768581571E+04  0.00000000000E+00 0. -1.
          2   -1    0    0  502    0 -0.00000000000E+00 -0.00000000000E+00 -0.22056864835E+04  0.22056864835E+04  0.00000000000E+00 0. -1.
         24    2    1    2    0    0  0.44217671003E+02 -0.21079528327E+03 -0.17426475557E+03  0.28854381117E+03  0.80619303252E+02 0.  0.
         25    2    1    2    0    0 -0.31597359946E+02  0.20670028264E+03  0.22224173866E+03  0.32976202669E+03  0.12501281470E+03 0.  0.
         24    2    1    2    0    0  0.24632356403E+02 -0.39400773809E+01  0.33923753051E+03  0.34915107065E+03  0.78753354460E+02 0.  0.
        -13    1    3    3    0    0 -0.10003563606E+02 -0.10646712359E+03 -0.51968457777E+02  0.11889508104E+03  0.00000000000E+00 0.  1.
         14    1    3    3    0    0  0.54221234609E+02 -0.10432815967E+03 -0.12229629779E+03  0.16964873013E+03  0.00000000000E+00 0. -1.
        -13    1    5    5    0    0  0.71682718161E+01 -0.15855666355E+02  0.11783307806E+02  0.21015056965E+02  0.00000000000E+00 0.  1.
         14    1    5    5    0    0  0.17464084587E+02  0.11915588974E+02  0.32745422271E+03  0.32813601369E+03  0.00000000000E+00 0. -1.
          5    1    4    4  501    0  0.89286747401E+01  0.36762773301E+02 -0.97106984251E+01  0.39339679680E+02  0.47000000000E+01 0.  1.
         -5    1    4    4    0  501 -0.40526034686E+02  0.16993750934E+03  0.23195243709E+03  0.29042234701E+03  0.47000000000E+01 0.  1.
          1    1    1    2  502    0  0.54714935893E+02 -0.33382398751E+02 -0.19135317301E+04  0.19146048655E+04  0.00000000000E+00 0. -1.
          1    1    1    2  503    0 -0.91967603353E+02  0.41417476754E+02  0.16974888901E+04  0.17004828666E+04  0.00000000000E+00 0. -1.
<mgrwt>
<rscale>  0 0.72204533E+02</rscale>
<asrwt>0</asrwt>
<pdfrwt beam="1">  1        2 0.34953797E+00 0.81340711E+02</pdfrwt>
<pdfrwt beam="2">  1        2 0.32436566E+00 0.64094530E+02</pdfrwt>
<totfact> 0.73800039E+00</totfact>
</mgrwt>
</event>
<event>
13    1  0.1595792E-008  0.3982846E+02  0.7546771E-02  0.1532033E+00
          2   -1    0    0  502    0  0.00000000000E+00  0.00000000000E+00  0.25967838596E+04  0.25967838596E+04  0.00000000000E+00 0. -1.
          2   -1    0    0  503    0 -0.00000000000E+00 -0.00000000000E+00 -0.25235124385E+04  0.25235124385E+04  0.00000000000E+00 0. -1.
         24    2    1    2    0    0  0.28532874475E+03  0.15781457978E+03 -0.28797126257E+03  0.44239211493E+03  0.80407717982E+02 0.  0.
         25    2    1    2    0    0 -0.58172745565E+03 -0.35013667596E+03 -0.48312019011E+03  0.84263576844E+03  0.12500958227E+03 0.  0.
         24    2    1    2    0    0  0.23951748613E+03  0.14541961379E+03  0.15773928262E+04  0.16053085676E+04  0.10164634177E+03 0.  0.
        -11    1    3    3    0    0  0.24848135003E+03  0.12441737789E+03 -0.27508986369E+03  0.39102058557E+03  0.00000000000E+00 0.  1.
         12    1    3    3    0    0  0.36847394728E+02  0.33397201882E+02 -0.12881398883E+02  0.51371529361E+02  0.00000000000E+00 0. -1.
        -13    1    5    5    0    0  0.90746544368E+02  0.10902113231E+03  0.87383993238E+03  0.88527779258E+03  0.00000000000E+00 0.  1.
         14    1    5    5    0    0  0.14877094176E+03  0.36398481485E+02  0.70355289380E+03  0.72003077500E+03  0.00000000000E+00 0. -1.
          5    1    4    4  501    0 -0.57127477211E+03 -0.31544075546E+03 -0.44528701544E+03  0.79003819628E+03  0.47000000000E+01 0. -1.
         -5    1    4    4    0  501 -0.10452683540E+02 -0.34695920497E+02 -0.37833174665E+02  0.52597572164E+02  0.47000000000E+01 0. -1.
          1    1    1    2  502    0  0.28585813987E+02  0.18879488120E+02  0.74780511798E+03  0.74858939234E+03  0.00000000000E+00 0. -1.
          1    1    1    2  503    0  0.28295410780E+02  0.28022994269E+02 -0.14808350705E+04  0.14813704548E+04  0.00000000000E+00 0. -1.
<mgrwt>
<rscale>  0 0.36938161E+02</rscale>
<asrwt>0</asrwt>
<pdfrwt beam="1">  1        2 0.38187998E+00 0.34257610E+02</pdfrwt>
<pdfrwt beam="2">  1        2 0.37110477E+00 0.39828457E+02</pdfrwt>
<totfact> 0.49122039E+00</totfact>
</mgrwt>
</event>
<event>
13    1  0.1595792E-008  0.2841665E+03  0.7546771E-02  0.1198820E+00
         -1   -1    0    0    0  501 -0.00000000000E+00  0.00000000000E+00  0.59965050589E+03  0.59965050589E+03  0.00000000000E+00 0.  1.
          2   -1    0    0  503    0  0.00000000000E+00 -0.00000000000E+00 -0.20532925779E+04  0.20532925779E+04  0.00000000000E+00 0. -1.
         24    2    1    2    0    0  0.11164785598E+02 -0.23056016209E+03 -0.14639435083E+03  0.28816330572E+03  0.91236747152E+02 0.  0.
         25    2    1    2    0    0 -0.10600005792E+03  0.65181105432E+03 -0.46418708115E+03  0.81681566515E+03  0.12499808686E+03 0.  0.
         24    2    1    2    0    0 -0.10752843383E+03 -0.23361769894E+03 -0.37492611128E+03  0.46174947621E+03  0.80643639029E+02 0.  0.
        -11    1    5    5    0    0 -0.99230336623E+02 -0.22951658995E+03 -0.37688269935E+03  0.45228872840E+03  0.00000000000E+00 0.  1.
         12    1    5    5    0    0 -0.82980972053E+01 -0.41011089849E+01  0.19565880675E+01  0.94607478035E+01  0.00000000000E+00 0. -1.
        -11    1    3    3    0    0  0.87921191843E+01 -0.23394543922E+02  0.11660286714E+02  0.27578403349E+02  0.00000000000E+00 0.  1.
         12    1    3    3    0    0  0.23726664138E+01 -0.20716561817E+03 -0.15805463754E+03  0.26058490237E+03  0.00000000000E+00 0. -1.
          5    1    4    4  502    0 -0.89797019899E+02  0.61616414917E+03 -0.46534529979E+03  0.77736098535E+03  0.47000000000E+01 0. -1.
         -5    1    4    4    0  502 -0.16203038019E+02  0.35646905149E+02  0.11582186433E+01  0.39454679801E+02  0.47000000000E+01 0. -1.
          1    1    1    2  503    0  0.13323258068E+03 -0.22910074198E+03 -0.74873923367E+03  0.79425972488E+03  0.00000000000E+00 0. -1.
         -2    1    1    2    0  501  0.69131125470E+02  0.41467548693E+02  0.28060470493E+03  0.29195491181E+03  0.00000000000E+00 0.  1.
<mgrwt>
<rscale>  0 0.15135354E+03</rscale>
<asrwt>0</asrwt>
<pdfrwt beam="2">  1        2 0.30195479E+00 0.28416651E+03</pdfrwt>
<pdfrwt beam="1">  1       -1 0.88183899E-01 0.80614329E+02</pdfrwt>
<totfact> 0.12429429E+01</totfact>
</mgrwt>
</event>
<event>
13    1  0.1595792E-008  0.4167111E+02  0.7546771E-02  0.1499358E+00
         -3   -1    0    0    0  501 -0.00000000000E+00  0.00000000000E+00  0.17408899759E+04  0.17408899759E+04  0.00000000000E+00 0.  1.
          2   -1    0    0  503    0  0.00000000000E+00 -0.00000000000E+00 -0.48877308022E+03  0.48877308022E+03  0.00000000000E+00 0. -1.
         24    2    1    2    0    0  0.11261254362E+03 -0.58508770489E+02  0.10799907554E+03  0.18491498213E+03  0.80155405902E+02 0.  0.
         25    2    1    2    0    0  0.14937060125E+02 -0.39128187287E+02  0.25757366091E+02  0.13431994595E+03  0.12499710063E+03 0.  0.
         24    2    1    2    0    0 -0.17512853721E+03  0.47166509717E+02 -0.32679341261E+03  0.38261948817E+03  0.81908815297E+02 0.  0.
        -11    1    5    5    0    0 -0.76956491256E+02 -0.19599200831E+02 -0.11374653427E+03  0.13872528349E+03  0.00000000000E+00 0.  1.
         12    1    5    5    0    0 -0.98172045954E+02  0.66765710548E+02 -0.21304687834E+03  0.24389420469E+03  0.00000000000E+00 0. -1.
        -11    1    3    3    0    0 -0.99979480253E+00 -0.11082104981E+02  0.45508985210E+02  0.46849550428E+02  0.00000000000E+00 0.  1.
         12    1    3    3    0    0  0.11361233842E+03 -0.47426665509E+02  0.62490090332E+02  0.13806543170E+03  0.00000000000E+00 0. -1.
          5    1    4    4  502    0 -0.24062403553E+02 -0.70636894261E+02 -0.56290716107E+01  0.74982308198E+02  0.47000000000E+01 0.  1.
         -5    1    4    4    0  502  0.38999463678E+02  0.31508706974E+02  0.31386437702E+02  0.59337637752E+02  0.47000000000E+01 0.  1.
          1    1    1    2  503    0  0.39652401910E+02  0.95714946416E+01 -0.30895880707E+02  0.51171104459E+02  0.00000000000E+00 0. -1.
         -4    1    1    2    0  501  0.79265315597E+01  0.40898953418E+02  0.14760497474E+04  0.14766375354E+04  0.00000000000E+00 0.  1.
<mgrwt>
<rscale>  0 0.41228836E+02</rscale>
<asrwt>0</asrwt>
<pdfrwt beam="2">  1        2 0.71878395E-01 0.40791255E+02</pdfrwt>
<pdfrwt beam="1">  1       -3 0.25601323E+00 0.41671112E+02</pdfrwt>
<totfact> 0.35619377E+00</totfact>
</mgrwt>
</event>
<event>
13    1  0.1595792E-008  0.3552524E+02  0.7546771E-02  0.1593584E+00
          2   -1    0    0  503    0  0.00000000000E+00  0.00000000000E+00  0.15369776675E+04  0.15369776675E+04  0.00000000000E+00 0. -1.
          2   -1    0    0  502    0 -0.00000000000E+00 -0.00000000000E+00 -0.90666806973E+03  0.90666806973E+03  0.00000000000E+00 0. -1.
         24    2    1    2    0    0  0.32565811737E+02 -0.36781897834E+02 -0.56757875219E+02  0.10993465476E+03  0.80316447971E+02 0.  0.
         25    2    1    2    0    0  0.71010034129E+02 -0.90263470165E-01 -0.31001820605E+02  0.14706616723E+03  0.12499964627E+03 0.  0.
         24    2    1    2    0    0 -0.67129457559E+02 -0.71631842099E+01  0.17261435480E+03  0.20165294408E+03  0.79438775756E+02 0.  0.
        -11    1    3    3    0    0 -0.20575502608E+02  0.89305168212E+01 -0.54963967047E+01  0.23093631482E+02  0.00000000000E+00 0.  1.
         12    1    3    3    0    0  0.53141314345E+02 -0.45712414655E+02 -0.51261478514E+02  0.86841023275E+02  0.00000000000E+00 0. -1.
        -13    1    5    5    0    0 -0.47802147314E+02  0.32654752977E+02  0.77407318229E+02  0.96660597429E+02  0.00000000000E+00 0.  1.
         14    1    5    5    0    0 -0.19327310245E+02 -0.39817937187E+02  0.95207036567E+02  0.10499234665E+03  0.00000000000E+00 0. -1.
          5    1    4    4  501    0  0.98657768331E+02 -0.27003949021E+02 -0.99895046945E+01  0.10288074999E+03  0.47000000000E+01 0. -1.
         -5    1    4    4    0  501 -0.27647734203E+02  0.26913685551E+02 -0.21012315911E+02  0.44185417237E+02  0.47000000000E+01 0. -1.
          1    1    1    2  502    0 -0.12821216879E+02  0.33098623691E+02 -0.71919686041E+03  0.72007223701E+03  0.00000000000E+00 0. -1.
          1    1    1    2  503    0 -0.23625171428E+02  0.10936721824E+02  0.12646517992E+04  0.12649197342E+04  0.00000000000E+00 0. -1.
<mgrwt>
<rscale>  0 0.30411482E+02</rscale>
<asrwt>0</asrwt>
<pdfrwt beam="1">  1        2 0.22602613E+00 0.26033836E+02</pdfrwt>
<pdfrwt beam="2">  1        2 0.13333354E+00 0.35525238E+02</pdfrwt>
<totfact> 0.93458343E+01</totfact>
</mgrwt>
</event>
<event>
13    1  0.1595792E-008  0.7448253E+02  0.7546771E-02  0.1359614E+00
          2   -1    0    0  502    0  0.00000000000E+00  0.00000000000E+00  0.46804088479E+04  0.46804088479E+04  0.00000000000E+00 0. -1.
          2   -1    0    0  503    0 -0.00000000000E+00 -0.00000000000E+00 -0.13904856538E+04  0.13904856538E+04  0.00000000000E+00 0. -1.
         24    2    1    2    0    0 -0.72142327256E+02  0.91087802499E+02 -0.61342362686E+03  0.62959701369E+03  0.81254849175E+02 0.  0.
         25    2    1    2    0    0  0.79977001143E+02 -0.16158450990E+03  0.89231155639E+03  0.91888479125E+03  0.12499388532E+03 0.  0.
         24    2    1    2    0    0  0.60110845121E+02  0.11148544946E+03  0.11107154005E+04  0.11207174597E+04  0.79225024327E+02 0.  0.
        -11    1    3    3    0    0 -0.20185049276E+02  0.32075900176E+02 -0.62512034790E+02  0.73103037420E+02  0.00000000000E+00 0.  1.
         12    1    3    3    0    0 -0.51957277980E+02  0.59011902323E+02 -0.55091159207E+03  0.55649397627E+03  0.00000000000E+00 0. -1.
        -13    1    5    5    0    0  0.17506643471E+02  0.10362990403E+02  0.48688378405E+03  0.48730862224E+03  0.00000000000E+00 0.  1.
         14    1    5    5    0    0  0.42604201650E+02  0.10112245906E+03  0.62383161646E+03  0.63340883750E+03  0.00000000000E+00 0. -1.
          5    1    4    4  501    0  0.93815304065E+02 -0.13828570825E+03  0.53484933433E+03  0.56036608464E+03  0.47000000000E+01 0. -1.
         -5    1    4    4    0  501 -0.13838302922E+02 -0.23298801646E+02  0.35746222206E+03  0.35851870661E+03  0.47000000000E+01 0. -1.
          1    1    1    2  502    0 -0.57356560576E+02  0.32759551159E+02  0.26487461877E+04  0.26495696499E+04  0.00000000000E+00 0. -1.
          1    1    1    2  503    0 -0.10588958432E+02 -0.73748293221E+02 -0.74842632363E+03  0.75212558705E+03  0.00000000000E+00 0. -1.
<mgrwt>
<rscale>  0 0.70141102E+02</rscale>
<asrwt>0</asrwt>
<pdfrwt beam="1">  1        2 0.68829541E+00 0.66052731E+02</pdfrwt>
<pdfrwt beam="2">  1        2 0.20448319E+00 0.74482526E+02</pdfrwt>
<totfact> 0.73083393E-01</totfact>
</mgrwt>
</event>
<event>
13    1  0.1595792E-008  0.1118177E+03  0.7546771E-02  0.1451839E+00
          2   -1    0    0  502    0  0.00000000000E+00  0.00000000000E+00  0.37537348835E+04  0.37537348835E+04  0.00000000000E+00 0. -1.
          2   -1    0    0  503    0 -0.00000000000E+00 -0.00000000000E+00 -0.19424138059E+04  0.19424138059E+04  0.00000000000E+00 0. -1.
         24    2    1    2    0    0  0.26395870522E+03 -0.42447139760E+03 -0.82285838327E+03  0.96615780125E+03  0.80714388794E+02 0.  0.
         25    2    1    2    0    0 -0.89182159622E+03  0.38312112491E+03  0.47102771746E+02  0.97978168754E+03  0.12500371316E+03 0.  0.
         24    2    1    2    0    0  0.52864272105E+03  0.44472363637E+02  0.68181511247E+03  0.86867694836E+03  0.91032276597E+02 0.  0.
        -11    1    3    3    0    0  0.18724914500E+03 -0.30660483736E+03 -0.51758956491E+03  0.63005374874E+03  0.00000000000E+00 0.  1.
         12    1    3    3    0    0  0.76709560215E+02 -0.11786656024E+03 -0.30526881836E+03  0.33610405251E+03  0.00000000000E+00 0. -1.
        -13    1    5    5    0    0  0.13472946152E+03  0.20547464863E+02  0.24221162452E+03  0.27792210629E+03  0.00000000000E+00 0.  1.
         14    1    5    5    0    0  0.39391325953E+03  0.23924898774E+02  0.43960348795E+03  0.59075484207E+03  0.00000000000E+00 0. -1.
          5    1    4    4  501    0 -0.54139882449E+03  0.16576188881E+03  0.23124383912E+02  0.56669790724E+03  0.47000000000E+01 0.  1.
         -5    1    4    4    0  501 -0.35042277173E+03  0.21735923610E+03  0.23978387834E+02  0.41308378030E+03  0.47000000000E+01 0.  1.
          1    1    1    2  502    0  0.11085559717E+03  0.14731834410E+02  0.23918572695E+04  0.23944701268E+04  0.00000000000E+00 0. -1.
          1    1    1    2  503    0 -0.11635427221E+02 -0.17853925358E+02 -0.48659569279E+03  0.48706212546E+03  0.00000000000E+00 0. -1.
<mgrwt>
<rscale>  0 0.48815097E+02</rscale>
<asrwt>0</asrwt>
<pdfrwt beam="1">  1        2 0.55201984E+00 0.11181772E+03</pdfrwt>
<pdfrwt beam="2">  1        2 0.28564909E+00 0.21310697E+02</pdfrwt>
<totfact> 0.18843873E+00</totfact>
</mgrwt>
</event>
<event>
13    1  0.1595792E-008  0.6864537E+02  0.7546771E-02  0.1471973E+00
          2   -1    0    0  502    0  0.00000000000E+00  0.00000000000E+00  0.61102772577E+03  0.61102772577E+03  0.00000000000E+00 0. -1.
          2   -1    0    0  503    0 -0.00000000000E+00 -0.00000000000E+00 -0.93985259569E+03  0.93985259569E+03  0.00000000000E+00 0. -1.
         24    2    1    2    0    0 -0.28195301382E+02 -0.61491828605E+02 -0.46490244353E+03  0.47647338632E+03  0.79475693495E+02 0.  0.
         25    2    1    2    0    0 -0.23949838837E+03 -0.14192212878E+03 -0.19757939252E+02  0.30580454277E+03  0.12499869416E+03 0.  0.
         24    2    1    2    0    0  0.30168772835E+03  0.12080989949E+03  0.24415388904E+03  0.41462680825E+03  0.81815349029E+02 0.  0.
        -11    1    5    5    0    0  0.28506545151E+03  0.88087200760E+02  0.21512621390E+03  0.36783278060E+03  0.00000000000E+00 0.  1.
         12    1    5    5    0    0  0.16622276844E+02  0.32722698726E+02  0.29027675144E+02  0.46794027649E+02  0.00000000000E+00 0. -1.
        -13    1    3    3    0    0  0.19219690509E+02 -0.31016659735E+02 -0.86279512694E+02  0.93678087059E+02  0.00000000000E+00 0.  1.
         14    1    3    3    0    0 -0.47414991891E+02 -0.30475168869E+02 -0.37862293084E+03  0.38279529926E+03  0.00000000000E+00 0. -1.
          5    1    4    4  501    0 -0.12905566511E+03 -0.41584953244E+02  0.45189850735E+02  0.14299960015E+03  0.47000000000E+01 0. -1.
         -5    1    4    4    0  501 -0.11044272326E+03 -0.10033717554E+03 -0.64947789987E+02  0.16280494262E+03  0.47000000000E+01 0. -1.
          1    1    1    2  502    0 -0.77945027606E+01  0.67985581948E+02  0.12288394792E+03  0.14065297111E+03  0.00000000000E+00 0. -1.
          1    1    1    2  503    0 -0.26199535837E+02  0.14618475954E+02 -0.21120232409E+03  0.21332261301E+03  0.00000000000E+00 0. -1.
<mgrwt>
<rscale>  0 0.45381639E+02</rscale>
<asrwt>0</asrwt>
<pdfrwt beam="1">  1        2 0.89857019E-01 0.68645368E+02</pdfrwt>
<pdfrwt beam="2">  1        2 0.13821362E+00 0.30001925E+02</pdfrwt>
<totfact> 0.28065845E+02</totfact>
</mgrwt>
</event>
<event>
13    1  0.1595792E-008  0.1270876E+03  0.7546771E-02  0.1344568E+00
          2   -1    0    0  502    0  0.00000000000E+00  0.00000000000E+00  0.18869202606E+04  0.18869202606E+04  0.00000000000E+00 0. -1.
          2   -1    0    0  503    0 -0.00000000000E+00 -0.00000000000E+00 -0.29598258840E+04  0.29598258840E+04  0.00000000000E+00 0. -1.
         24    2    1    2    0    0  0.49733056706E+02  0.26679103157E+02 -0.27106144957E+03  0.28871288229E+03  0.81827058372E+02 0.  0.
         25    2    1    2    0    0  0.15374421470E+03  0.40306036702E+02  0.34469326726E+03  0.39962421773E+03  0.12499682696E+03 0.  0.
         24    2    1    2    0    0 -0.30305462405E+02 -0.54248824051E+01  0.85443832624E+02  0.12186128490E+03  0.81250685057E+02 0.  0.
        -11    1    3    3    0    0  0.41465109453E+02 -0.20045541801E+02 -0.18271300407E+03  0.18842829115E+03  0.00000000000E+00 0.  1.
         12    1    3    3    0    0  0.82679472531E+01  0.46724644959E+02 -0.88348445501E+02  0.10028459114E+03  0.00000000000E+00 0. -1.
        -13    1    5    5    0    0 -0.57628803039E+02  0.41307264977E+01  0.60414248226E+02  0.83594397119E+02  0.00000000000E+00 0.  1.
         14    1    5    5    0    0  0.27323340634E+02 -0.95556089029E+01  0.25029584398E+02  0.38266887776E+02  0.00000000000E+00 0. -1.
          5    1    4    4  501    0  0.16555438726E+03  0.21805255121E+02  0.33658224588E+03  0.37575713238E+03  0.47000000000E+01 0. -1.
         -5    1    4    4    0  501 -0.11810172562E+02  0.18500781581E+02  0.81110213817E+01  0.23867085346E+02  0.47000000000E+01 0. -1.
          1    1    1    2  502    0  0.37963371707E+02 -0.22236244475E+02  0.13975591398E+04  0.13982514857E+04  0.00000000000E+00 0. -1.
          1    1    1    2  503    0 -0.21113518071E+03 -0.39324012979E+02 -0.26295404135E+04  0.26382962739E+04  0.00000000000E+00 0. -1.
<mgrwt>
<rscale>  0 0.74775496E+02</rscale>
<asrwt>0</asrwt>
<pdfrwt beam="1">  1        2 0.27748828E+00 0.43996229E+02</pdfrwt>
<pdfrwt beam="2">  1        2 0.43526851E+00 0.12708759E+03</pdfrwt>
<totfact> 0.51598801E+00</totfact>
</mgrwt>
</event>
<event>
13    1  0.1595792E-008  0.4637762E+03  0.7546771E-02  0.1227715E+00
          2   -1    0    0  502    0  0.00000000000E+00  0.00000000000E+00  0.32590301702E+04  0.32590301702E+04  0.00000000000E+00 0. -1.
          2   -1    0    0  503    0 -0.00000000000E+00 -0.00000000000E+00 -0.13335763239E+04  0.13335763239E+04  0.00000000000E+00 0. -1.
         24    2    1    2    0    0 -0.58150283383E+01 -0.54050612597E+03  0.32440787233E+03  0.63575272949E+03  0.82221521869E+02 0.  0.
         25    2    1    2    0    0 -0.44192323665E+03  0.76466964884E+03  0.14001486789E+04  0.16601377756E+04  0.12500116721E+03 0.  0.
         24    2    1    2    0    0  0.66647007774E+02 -0.32083687340E+02  0.59505001937E+03  0.60532160964E+03  0.82816296164E+02 0.  0.
        -11    1    3    3    0    0  0.28818572862E+02 -0.27136796043E+03  0.13227182457E+03  0.30326047495E+03  0.00000000000E+00 0.  1.
         12    1    3    3    0    0 -0.34633601201E+02 -0.26913816554E+03  0.19213604776E+03  0.33249225454E+03  0.00000000000E+00 0. -1.
        -13    1    5    5    0    0  0.77346281921E+02 -0.22899500312E+02  0.32348375981E+03  0.33338952788E+03  0.00000000000E+00 0.  1.
         14    1    5    5    0    0 -0.10699274148E+02 -0.91841870286E+01  0.27156625956E+03  0.27193208176E+03  0.00000000000E+00 0. -1.
          5    1    4    4  501    0 -0.27269563551E+03  0.47086427498E+03  0.97230231986E+03  0.11142127114E+04  0.47000000000E+01 0.  1.
         -5    1    4    4    0  501 -0.16922760114E+03  0.29380537386E+03  0.42784635906E+03  0.54592506414E+03  0.47000000000E+01 0.  1.
          1    1    1    2  502    0 -0.34267472904E+02  0.12103435323E+02  0.59668401322E+03  0.59778973267E+03  0.00000000000E+00 0. -1.
          1    1    1    2  503    0  0.41535873011E+03 -0.20418327086E+03 -0.99083673757E+03  0.10936046467E+04  0.00000000000E+00 0. -1.
<mgrwt>
<rscale>  0 0.12982538E+03</rscale>
<asrwt>0</asrwt>
<pdfrwt beam="1">  1        2 0.47926914E+00 0.36342163E+02</pdfrwt>
<pdfrwt beam="2">  1        2 0.19611417E+00 0.46377620E+03</pdfrwt>
<totfact> 0.68737735E+00</totfact>
</mgrwt>
</event>
<event>
13    1  0.1595792E-008  0.1907658E+03  0.7546771E-02  0.1313730E+00
          2   -1    0    0  503    0  0.00000000000E+00  0.00000000000E+00  0.11186976533E+04  0.11186976533E+04  0.00000000000E+00 0. -1.
          2   -1    0    0  502    0 -0.00000000000E+00 -0.00000000000E+00 -0.20935192386E+04  0.20935192386E+04  0.00000000000E+00 0. -1.
         24    2    1    2    0    0  0.57089672327E+02 -0.85327940133E+02 -0.42165679695E+03  0.44415766707E+03  0.94559456160E+02 0.  0.
         25    2    1    2    0    0  0.16026148650E+03  0.25615646266E+03 -0.41332585763E+02  0.32959511398E+03  0.12499871638E+03 0.  0.
         24    2    1    2    0    0 -0.79156927142E+02  0.43397590001E+02 -0.70250873981E+02  0.14023167768E+03  0.81120701412E+02 0.  0.
        -11    1    3    3    0    0 -0.12033626993E+02 -0.37038590823E+02 -0.24882195692E+03  0.25185120931E+03  0.00000000000E+00 0.  1.
         12    1    3    3    0    0  0.69123299320E+02 -0.48289349310E+02 -0.17283484003E+03  0.19230645776E+03  0.00000000000E+00 0. -1.
        -13    1    5    5    0    0 -0.62549461024E+02  0.67050662570E+02 -0.59926381949E+02  0.10954176226E+03  0.00000000000E+00 0.  1.
         14    1    5    5    0    0 -0.16607466118E+02 -0.23653072569E+02 -0.10324492032E+02  0.30689915421E+02  0.00000000000E+00 0. -1.
          5    1    4    4  501    0 -0.12776911175E+02  0.57715254155E+02  0.13023556577E+02  0.60712462043E+02  0.47000000000E+01 0.  1.
         -5    1    4    4    0  501  0.17303839767E+03  0.19844120851E+03 -0.54356142340E+02  0.26888265194E+03  0.47000000000E+01 0.  1.
          1    1    1    2  502    0 -0.13455745993E+03 -0.17593948367E+03 -0.13605488102E+04  0.13784605460E+04  0.00000000000E+00 0. -1.
          1    1    1    2  503    0 -0.36367717500E+01 -0.38286628863E+02  0.91896748165E+03  0.91977188715E+03  0.00000000000E+00 0. -1.
<mgrwt>
<rscale>  0 0.85654271E+02</rscale>
<asrwt>0</asrwt>
<pdfrwt beam="1">  1        2 0.16451436E+00 0.38458966E+02</pdfrwt>
<pdfrwt beam="2">  1        2 0.30787047E+00 0.19076577E+03</pdfrwt>
<totfact> 0.31990722E+01</totfact>
</mgrwt>
</event>
<event>
13    1  0.1595792E-008  0.1116476E+03  0.7546771E-02  0.1494110E+00
          2   -1    0    0  503    0  0.00000000000E+00  0.00000000000E+00  0.44679786885E+03  0.44679786885E+03  0.00000000000E+00 0. -1.
          2   -1    0    0  502    0 -0.00000000000E+00 -0.00000000000E+00 -0.57565754796E+03  0.57565754796E+03  0.00000000000E+00 0. -1.
         24    2    1    2    0    0  0.73771110518E+02  0.72255287055E+02 -0.29056141109E+03  0.31824907000E+03  0.78699006907E+02 0.  0.
         25    2    1    2    0    0 -0.45230320863E+00 -0.34441937711E+01 -0.76724498457E+02  0.14674176632E+03  0.12503771540E+03 0.  0.
         24    2    1    2    0    0 -0.13077495830E+03  0.17160162886E+02  0.18070906554E+03  0.23739948025E+03  0.79411497573E+02 0.  0.
        -11    1    5    5    0    0 -0.26382836316E+02  0.24104120419E+02  0.98768589376E+01  0.37075800945E+02  0.00000000000E+00 0.  1.
         12    1    5    5    0    0 -0.10439212198E+03 -0.69439575324E+01  0.17083220660E+03  0.20032367930E+03  0.00000000000E+00 0. -1.
        -11    1    3    3    0    0  0.74441729652E+02  0.25180786831E+02 -0.14060275228E+03  0.16107382496E+03  0.00000000000E+00 0.  1.
         12    1    3    3    0    0 -0.67061913448E+00  0.47074500223E+02 -0.14995865881E+03  0.15717524504E+03  0.00000000000E+00 0. -1.
          5    1    4    4  501    0  0.56678728722E+02 -0.23540409040E+00 -0.83894228887E+01  0.57489182644E+02  0.47000000000E+01 0. -1.
         -5    1    4    4    0  501 -0.57131031931E+02 -0.32087896807E+01 -0.68335075568E+02  0.89252583680E+02  0.47000000000E+01 0. -1.
          1    1    1    2  502    0  0.71464149478E+01  0.14076293559E+02 -0.11398439856E+03  0.11507239636E+03  0.00000000000E+00 0. -1.
          1    1    1    2  503    0  0.50309736040E+02 -0.10004754973E+03  0.17170156347E+03  0.20499270388E+03  0.00000000000E+00 0. -1.
<mgrwt>
<rscale>  0 0.41982426E+02</rscale>
<asrwt>0</asrwt>
<pdfrwt beam="1">  1        2 0.65705569E-01 0.11164762E+03</pdfrwt>
<pdfrwt beam="2">  1        2 0.84655522E-01 0.15786491E+02</pdfrwt>
<totfact> 0.67918263E+02</totfact>
</mgrwt>
</event>
<event>
13    1  0.1595792E-008  0.9281956E+02  0.7546771E-02  0.1367812E+00
          2   -1    0    0  502    0  0.00000000000E+00  0.00000000000E+00  0.12576814296E+04  0.12576814296E+04  0.00000000000E+00 0. -1.
          2   -1    0    0  503    0 -0.00000000000E+00 -0.00000000000E+00 -0.14719566906E+04  0.14719566906E+04  0.00000000000E+00 0. -1.
         24    2    1    2    0    0  0.40930160120E+02  0.11402422787E+03 -0.34490465201E+02  0.14917170835E+03  0.79911224705E+02 0.  0.
         25    2    1    2    0    0  0.68607274339E+02 -0.86066150840E+02  0.33454091882E+03  0.37371130086E+03  0.12501267782E+03 0.  0.
         24    2    1    2    0    0 -0.13331504890E+03  0.42984852937E+02  0.34109673425E+03  0.37764271796E+03  0.81525704329E+02 0.  0.
        -11    1    5    5    0    0 -0.77546846716E+02 -0.12562276326E+02  0.21601074705E+03  0.22985205473E+03  0.00000000000E+00 0.  1.
         12    1    5    5    0    0 -0.55768202179E+02  0.55547129263E+02  0.12508598720E+03  0.14779066323E+03  0.00000000000E+00 0. -1.
        -13    1    3    3    0    0  0.13646248512E+01 -0.83833012122E+01 -0.17446897626E+02  0.19404540112E+02  0.00000000000E+00 0.  1.
         14    1    3    3    0    0  0.39565535269E+02  0.12240752908E+03 -0.17043567574E+02  0.12976716824E+03  0.00000000000E+00 0. -1.
          5    1    4    4  501    0  0.47642692067E+02 -0.84786054939E+01  0.25828858955E+03  0.26282465323E+03  0.47000000000E+01 0. -1.
         -5    1    4    4    0  501  0.20964582273E+02 -0.77587545346E+02  0.76252329274E+02  0.11088664763E+03  0.47000000000E+01 0. -1.
          1    1    1    2  502    0  0.45555372292E+02  0.19348792273E+02  0.48397458935E+03  0.48649878812E+03  0.00000000000E+00 0. -1.
          1    1    1    2  503    0 -0.21777757856E+02 -0.90291722237E+02 -0.13393970382E+04  0.13426136048E+04  0.00000000000E+00 0. -1.
<mgrwt>
<rscale>  0 0.67779216E+02</rscale>
<asrwt>0</asrwt>
<pdfrwt beam="1">  1        2 0.18495315E+00 0.49494118E+02</pdfrwt>
<pdfrwt beam="2">  1        2 0.21646422E+00 0.92819558E+02</pdfrwt>
<totfact> 0.57623739E+01</totfact>
</mgrwt>
</event>
<event>
13    1  0.1595792E-008  0.4541622E+02  0.7546771E-02  0.1479772E+00
          2   -1    0    0  503    0  0.00000000000E+00  0.00000000000E+00  0.11104453796E+04  0.11104453796E+04  0.00000000000E+00 0. -1.
         -1   -1    0    0    0  501 -0.00000000000E+00 -0.00000000000E+00 -0.44964706050E+03  0.44964706050E+03  0.00000000000E+00 0.  1.
         24    2    1    2    0    0 -0.14044589270E+02  0.42170406954E+02 -0.13479665276E+03  0.16260114085E+03  0.79330950457E+02 0.  0.
         25    2    1    2    0    0 -0.32944995675E+02 -0.58148872297E+02  0.15536340935E+03  0.21030007762E+03  0.12498667767E+03 0.  0.
         24    2    1    2    0    0  0.31209638287E+02 -0.52919850883E+02  0.51903588978E+03  0.52858593727E+03  0.78932161144E+02 0.  0.
        -13    1    5    5    0    0  0.15107441738E+02  0.38770408765E+01  0.16922068322E+02  0.23013531631E+02  0.00000000000E+00 0.  1.
         14    1    5    5    0    0  0.16102196549E+02 -0.56796891759E+02  0.50211382146E+03  0.50557240564E+03  0.00000000000E+00 0. -1.
        -13    1    3    3    0    0 -0.26857015086E+02 -0.62521681814E+01 -0.94119040468E+02  0.98075392657E+02  0.00000000000E+00 0.  1.
         14    1    3    3    0    0  0.12812425816E+02  0.48422575136E+02 -0.40677612288E+02  0.64525748190E+02  0.00000000000E+00 0. -1.
          5    1    4    4  502    0 -0.45803326635E+02 -0.61916961150E+02  0.17194805119E+03  0.18846717782E+03  0.47000000000E+01 0. -1.
         -5    1    4    4    0  502  0.12858330960E+02  0.37680888533E+01 -0.16584641842E+02  0.21832899800E+02  0.47000000000E+01 0. -1.
          1    1    1    2  503    0  0.33311556172E+02  0.27037314365E+02  0.38678958222E+03  0.38916173637E+03  0.00000000000E+00 0. -1.
         -2    1    1    2    0  501 -0.17531609514E+02  0.41861001860E+02 -0.26559390947E+03  0.26944354800E+03  0.00000000000E+00 0.  1.
<mgrwt>
<rscale>  0 0.44141778E+02</rscale>
<asrwt>0</asrwt>
<pdfrwt beam="1">  1        2 0.16330079E+00 0.42903102E+02</pdfrwt>
<pdfrwt beam="2">  1       -1 0.66124568E-01 0.45416218E+02</pdfrwt>
<totfact> 0.76602689E+01</totfact>
</mgrwt>
</event>
<event>
13    1  0.1595792E-008  0.2719619E+03  0.7546771E-02  0.1227151E+00
          2   -1    0    0  503    0  0.00000000000E+00  0.00000000000E+00  0.14390361280E+04  0.14390361280E+04  0.00000000000E+00 0. -1.
          2   -1    0    0  502    0 -0.00000000000E+00 -0.00000000000E+00 -0.12581133465E+04  0.12581133465E+04  0.00000000000E+00 0. -1.
         24    2    1    2    0    0 -0.22700987863E+03 -0.83635270751E+02 -0.39696939354E+02  0.25791830081E+03  0.80110295156E+02 0.  0.
         25    2    1    2    0    0  0.25030412245E+03  0.15629810442E+03  0.87908524204E+01  0.32059715082E+03  0.12499601141E+03 0.  0.
         24    2    1    2    0    0  0.17902125633E+02 -0.27972968295E+03 -0.20153338407E+03  0.35562857844E+03  0.85362751131E+02 0.  0.
        -11    1    3    3    0    0 -0.90438762447E+02 -0.75776248228E+02 -0.21170441575E+02  0.11987242028E+03  0.00000000000E+00 0.  1.
         12    1    3    3    0    0 -0.13657111618E+03 -0.78590225236E+01 -0.18526497779E+02  0.13804588052E+03  0.00000000000E+00 0. -1.
        -13    1    5    5    0    0 -0.99135304987E+01 -0.39265685424E+02 -0.68071436686E+02  0.79207276378E+02  0.00000000000E+00 0.  1.
         14    1    5    5    0    0  0.27815656132E+02 -0.24046399753E+03 -0.13346194738E+03  0.27642130206E+03  0.00000000000E+00 0. -1.
          5    1    4    4  501    0  0.63670523835E+02  0.77598250522E+02  0.52438768812E+02  0.11334610079E+03  0.47000000000E+01 0. -1.
         -5    1    4    4    0  501  0.18663359861E+03  0.78699853901E+02 -0.43647916391E+02  0.20725105004E+03  0.47000000000E+01 0. -1.
          1    1    1    2  502    0  0.27863324342E+02 -0.55763883884E+02 -0.65635556163E+03  0.65930918306E+03  0.00000000000E+00 0. -1.
          1    1    1    2  503    0 -0.69059693795E+02  0.26283073316E+03  0.10697178141E+04  0.11036962614E+04  0.00000000000E+00 0. -1.
<mgrwt>
<rscale>  0 0.13020542E+03</rscale>
<asrwt>0</asrwt>
<pdfrwt beam="1">  1        2 0.21162296E+00 0.27196191E+03</pdfrwt>
<pdfrwt beam="2">  1        2 0.18501667E+00 0.62337594E+02</pdfrwt>
<totfact> 0.54577576E+01</totfact>
</mgrwt>
</event>
<event>
13    1  0.1595792E-008  0.3740846E+02  0.7546771E-02  0.1551019E+00
          2   -1    0    0  502    0  0.00000000000E+00  0.00000000000E+00  0.28330396730E+04  0.28330396730E+04  0.00000000000E+00 0. -1.
          2   -1    0    0  503    0 -0.00000000000E+00 -0.00000000000E+00 -0.28963869213E+04  0.28963869213E+04  0.00000000000E+00 0. -1.
         24    2    1    2    0    0 -0.56843852023E+02  0.33670480271E+03 -0.14661277711E+04  0.15072681735E+04  0.75666095129E+02 0.  0.
         25    2    1    2    0    0 -0.28994714289E+03 -0.16200585753E+03 -0.20126279323E+03  0.40797873583E+03  0.12499877363E+03 0.  0.
         24    2    1    2    0    0  0.31023903376E+03 -0.22018178763E+03  0.70435010687E+03  0.80217251133E+03  0.51413881429E+02 0.  0.
        -11    1    5    5    0    0  0.16425448558E+03 -0.10592861506E+03  0.41188139977E+03  0.45590206733E+03  0.00000000000E+00 0.  1.
         12    1    5    5    0    0  0.14598454818E+03 -0.11425317256E+03  0.29246870710E+03  0.34627044399E+03  0.00000000000E+00 0. -1.
        -11    1    3    3    0    0  0.86233347470E+01  0.15703833543E+03 -0.72565376659E+03  0.74250171021E+03  0.00000000000E+00 0.  1.
         12    1    3    3    0    0 -0.65467186770E+02  0.17966646728E+03 -0.74047400450E+03  0.76476646327E+03  0.00000000000E+00 0. -1.
          5    1    4    4  501    0 -0.18304764453E+03 -0.67195122099E+02 -0.53228181580E+02  0.20218049836E+03  0.47000000000E+01 0. -1.
         -5    1    4    4    0  501 -0.10689949836E+03 -0.94810735428E+02 -0.14803461165E+03  0.20579823748E+03  0.47000000000E+01 0. -1.
          1    1    1    2  502    0  0.34970579614E+02  0.13279979160E+02  0.19554252033E+04  0.19557829698E+04  0.00000000000E+00 0. -1.
          1    1    1    2  503    0  0.15813815392E+01  0.32202863280E+02 -0.10557319942E+04  0.10562242038E+04  0.00000000000E+00 0. -1.
<mgrwt>
<rscale>  0 0.34729113E+02</rscale>
<asrwt>0</asrwt>
<pdfrwt beam="1">  1        2 0.41662348E+00 0.37408464E+02</pdfrwt>
<pdfrwt beam="2">  1        2 0.42593925E+00 0.32241668E+02</pdfrwt>
<totfact> 0.25340630E+00</totfact>
</mgrwt>
</event>
<event>
13    1  0.1595792E-008  0.1443873E+03  0.7546771E-02  0.1411407E+00
          2   -1    0    0  502    0  0.00000000000E+00  0.00000000000E+00  0.21265511192E+04  0.21265511192E+04  0.00000000000E+00 0. -1.
          2   -1    0    0  503    0 -0.00000000000E+00 -0.00000000000E+00 -0.20359959486E+04  0.20359959486E+04  0.00000000000E+00 0. -1.
         24    2    1    2    0    0  0.44227945837E+02 -0.97447855996E+02 -0.44141184357E+03  0.46164865476E+03  0.82600659615E+02 0.  0.
         25    2    1    2    0    0  0.19037991051E+03  0.92790026079E+01  0.24294487381E+03  0.33313233676E+03  0.12499732745E+03 0.  0.
         24    2    1    2    0    0 -0.82235259067E+02 -0.93666305806E+02  0.14922601932E+04  0.14994480247E+04  0.77252054112E+02 0.  0.
        -13    1    3    3    0    0  0.35215228203E+02  0.18833272463E+01 -0.10510444765E+03  0.11086299714E+03  0.00000000000E+00 0.  1.
         14    1    3    3    0    0  0.90127176340E+01 -0.99331183242E+02 -0.33630739592E+03  0.35078565762E+03  0.00000000000E+00 0. -1.
        -13    1    5    5    0    0 -0.24934888185E+02 -0.32921611094E+02  0.18638503411E+03  0.19090563655E+03  0.00000000000E+00 0.  1.
         14    1    5    5    0    0 -0.57300370883E+02 -0.60744694712E+02  0.13058751590E+04  0.13085423881E+04  0.00000000000E+00 0. -1.
          5    1    4    4  501    0  0.57728781416E+02  0.25936253144E+02  0.16846288896E+03  0.18001982221E+03  0.47000000000E+01 0. -1.
         -5    1    4    4    0  501  0.13265112909E+03 -0.16657250536E+02  0.74481984847E+02  0.15311251455E+03  0.47000000000E+01 0. -1.
          1    1    1    2  502    0 -0.11682861806E+01 -0.22377623617E+02  0.32163727345E+03  0.32241690186E+03  0.00000000000E+00 0. -1.
          1    1    1    2  503    0 -0.15120431110E+03  0.20421278281E+03 -0.15248753262E+04  0.15459011498E+04  0.00000000000E+00 0. -1.
<mgrwt>
<rscale>  0 0.56880968E+02</rscale>
<asrwt>0</asrwt>
<pdfrwt beam="1">  1        2 0.31272811E+00 0.22408100E+02</pdfrwt>
<pdfrwt beam="2">  1        2 0.29941117E+00 0.14438728E+03</pdfrwt>
<totfact> 0.12603122E+01</totfact>
</mgrwt>
</event>
<event>
13    1  0.1595792E-008  0.8666326E+02  0.7546771E-02  0.1334305E+00
          2   -1    0    0  502    0  0.00000000000E+00  0.00000000000E+00  0.14309645357E+04  0.14309645357E+04  0.00000000000E+00 0. -1.
          2   -1    0    0  503    0 -0.00000000000E+00 -0.00000000000E+00 -0.88286747993E+03  0.88286747993E+03  0.00000000000E+00 0. -1.
         24    2    1    2    0    0 -0.11275945493E+03 -0.77417470278E+00 -0.20616399659E+03  0.24887939425E+03  0.81988202628E+02 0.  0.
         25    2    1    2    0    0  0.62735965743E+02  0.14855525697E+03  0.11213015205E+03  0.23281446734E+03  0.12499975773E+03 0.  0.
         24    2    1    2    0    0  0.28514101960E+01 -0.47071714393E+02  0.20687629128E+03  0.22686478648E+03  0.80286702607E+02 0.  0.
        -13    1    3    3    0    0 -0.11639810082E+03 -0.21016679529E+02 -0.16700954704E+03  0.20465191789E+03  0.00000000000E+00 0.  1.
         14    1    3    3    0    0  0.36386458963E+01  0.20242504826E+02 -0.39154449541E+02  0.44227476352E+02  0.00000000000E+00 0. -1.
        -13    1    5    5    0    0 -0.23055733326E+02  0.13858631687E+02  0.59069182833E+02  0.64906061905E+02  0.00000000000E+00 0.  1.
         14    1    5    5    0    0  0.25907143522E+02 -0.60930346080E+02  0.14780710844E+03  0.16195872457E+03  0.00000000000E+00 0. -1.
          5    1    4    4  501    0  0.16342113183E+02  0.15260086448E+03  0.66106482924E+02  0.16717130612E+03  0.47000000000E+01 0. -1.
         -5    1    4    4    0  501  0.46393852560E+02 -0.40456075166E+01  0.46023669123E+02  0.65643161221E+02  0.47000000000E+01 0. -1.
          1    1    1    2  502    0  0.68513472780E+02 -0.16711305445E+02  0.10158249332E+04  0.10182699340E+04  0.00000000000E+00 0. -1.
          1    1    1    2  503    0 -0.21341393792E+02 -0.83998062426E+02 -0.58057032420E+03  0.58700343348E+03  0.00000000000E+00 0. -1.
<mgrwt>
<rscale>  0 0.78177194E+02</rscale>
<asrwt>0</asrwt>
<pdfrwt beam="1">  1        2 0.21043596E+00 0.70522079E+02</pdfrwt>
<pdfrwt beam="2">  1        2 0.12983345E+00 0.86663264E+02</pdfrwt>
<totfact> 0.96091659E+01</totfact>
</mgrwt>
</event>
<event>
13    1  0.1595792E-008  0.1093736E+03  0.7546771E-02  0.1379445E+00
          2   -1    0    0  503    0  0.00000000000E+00  0.00000000000E+00  0.70698888986E+03  0.70698888986E+03  0.00000000000E+00 0. -1.
          2   -1    0    0  502    0 -0.00000000000E+00 -0.00000000000E+00 -0.12675937016E+04  0.12675937016E+04  0.00000000000E+00 0. -1.
         24    2    1    2    0    0  0.65367935923E+02  0.58395407434E+02 -0.14126258621E+03  0.18464954364E+03  0.80357607270E+02 0.  0.
         25    2    1    2    0    0 -0.11338284120E+03 -0.53467513912E+02 -0.28303262950E+02  0.17926890544E+03  0.12498728752E+03 0.  0.
         24    2    1    2    0    0 -0.24730635126E+02 -0.15763799216E+02  0.34388490506E+03  0.35428027521E+03  0.79984897279E+02 0.  0.
        -11    1    5    5    0    0 -0.32636280322E+02 -0.43367151447E+02  0.26038270136E+03  0.26597929954E+03  0.00000000000E+00 0.  1.
         12    1    5    5    0    0  0.79056451955E+01  0.27603352232E+02  0.83502203708E+02  0.88300975671E+02  0.00000000000E+00 0. -1.
        -13    1    3    3    0    0  0.80012511885E+01 -0.18963650289E+02 -0.39487839139E+02  0.44530096483E+02  0.00000000000E+00 0.  1.
         14    1    3    3    0    0  0.57366684735E+02  0.77359057723E+02 -0.10177474707E+03  0.14011944715E+03  0.00000000000E+00 0. -1.
          5    1    4    4  501    0 -0.10260844532E+03  0.10255072098E+02  0.10470448367E+02  0.10375634845E+03  0.47000000000E+01 0. -1.
         -5    1    4    4    0  501 -0.10774395886E+02 -0.63722586011E+02 -0.38773711317E+02  0.75512556995E+02  0.47000000000E+01 0. -1.
          1    1    1    2  502    0  0.11090493932E+03  0.10088531603E+02 -0.99112182774E+03  0.99735859221E+03  0.00000000000E+00 0. -1.
          1    1    1    2  503    0 -0.38159398909E+02  0.74737409120E+00  0.25619796012E+03  0.25902527495E+03  0.00000000000E+00 0. -1.
<mgrwt>
<rscale>  0 0.64609833E+02</rscale>
<asrwt>0</asrwt>
<pdfrwt beam="1">  1        2 0.10396896E+00 0.38166717E+02</pdfrwt>
<pdfrwt beam="2">  1        2 0.18641084E+00 0.10937358E+03</pdfrwt>
<totfact> 0.15044734E+02</totfact>
</mgrwt>
</event>
<event>
13    1  0.1595792E-008  0.4973267E+02  0.7546771E-02  0.1469449E+00
          2   -1    0    0  503    0  0.00000000000E+00  0.00000000000E+00  0.14251400514E+04  0.14251400514E+04  0.00000000000E+00 0. -1.
          2   -1    0    0  502    0 -0.00000000000E+00 -0.00000000000E+00 -0.26048826285E+04  0.26048826285E+04  0.00000000000E+00 0. -1.
         24    2    1    2    0    0 -0.65668299991E+03 -0.15054670638E+03 -0.84492325979E+03  0.10836901001E+04  0.81191409901E+02 0.  0.
         25    2    1    2    0    0  0.12408862029E+03  0.31737900268E+03 -0.65271261634E+03  0.74684805678E+03  0.12498337233E+03 0.  0.
         24    2    1    2    0    0  0.52754031296E+03 -0.78898418667E+02 -0.27176209057E+03  0.60681276792E+03  0.99213704607E+02 0.  0.
        -13    1    3    3    0    0 -0.30721868340E+03 -0.81503083063E+02 -0.46112073956E+03  0.56005214795E+03  0.00000000000E+00 0.  1.
         14    1    3    3    0    0 -0.34946431651E+03 -0.69043623313E+02 -0.38380252023E+03  0.52363795219E+03  0.00000000000E+00 0. -1.
        -13    1    5    5    0    0  0.21286894621E+03 -0.63233512738E+02 -0.70628052242E+02  0.23302357639E+03  0.00000000000E+00 0.  1.
         14    1    5    5    0    0  0.31467136675E+03 -0.15664905929E+02 -0.20113403832E+03  0.37378919153E+03  0.00000000000E+00 0. -1.
          5    1    4    4  501    0  0.76562450843E+02  0.12097886126E+03 -0.16263472663E+03  0.21672525939E+03  0.47000000000E+01 0.  1.
         -5    1    4    4    0  501  0.47526169446E+02  0.19640014142E+03 -0.49007788970E+03  0.53012279739E+03  0.47000000000E+01 0.  1.
          1    1    1    2  502    0 -0.10722224887E+02 -0.40779854679E+02 -0.50005395276E+03  0.50182857464E+03  0.00000000000E+00 0. -1.
          1    1    1    2  503    0  0.15776291551E+02 -0.47154022957E+02  0.10897093424E+04  0.10908431803E+04  0.00000000000E+00 0. -1.
<mgrwt>
<rscale>  0 0.45793259E+02</rscale>
<asrwt>0</asrwt>
<pdfrwt beam="1">  1        2 0.20957942E+00 0.49732671E+02</pdfrwt>
<pdfrwt beam="2">  1        2 0.38307097E+00 0.42165894E+02</pdfrwt>
<totfact> 0.15007795E+01</totfact>
</mgrwt>
</event>
<event>
13    1  0.1595792E-008  0.1827800E+03  0.7546771E-02  0.1275139E+00
          2   -1    0    0  503    0  0.00000000000E+00  0.00000000000E+00  0.21008682754E+04  0.21008682754E+04  0.00000000000E+00 0. -1.
          2   -1    0    0  502    0 -0.00000000000E+00 -0.00000000000E+00 -0.74147788740E+03  0.74147788740E+03  0.00000000000E+00 0. -1.
         24    2    1    2    0    0 -0.34753947471E+02 -0.70937183572E+01  0.15413480286E+03  0.17788445430E+03  0.81407517611E+02 0.  0.
         25    2    1    2    0    0  0.24560173607E+02 -0.12880367401E+03  0.71095739304E+03  0.73367505186E+03  0.12500031370E+03 0.  0.
         24    2    1    2    0    0  0.32715030468E+02 -0.10336249507E+03  0.43658791037E+03  0.45707854956E+03  0.80979740551E+02 0.  0.
        -11    1    5    5    0    0  0.51418340427E+02 -0.37901768922E+02  0.16107462298E+03  0.17327845794E+03  0.00000000000E+00 0.  1.
         12    1    5    5    0    0 -0.18703309960E+02 -0.65460726145E+02  0.27551328739E+03  0.28380009162E+03  0.00000000000E+00 0. -1.
        -11    1    3    3    0    0 -0.39458075420E+02 -0.37048495331E+02  0.70215867790E+02  0.88655506381E+02  0.00000000000E+00 0.  1.
         12    1    3    3    0    0  0.47041279497E+01  0.29954776974E+02  0.83918935069E+02  0.89228947917E+02  0.00000000000E+00 0. -1.
          5    1    4    4  501    0 -0.44578780638E+02 -0.82631444450E+02  0.30070386363E+03  0.31505575205E+03  0.47000000000E+01 0. -1.
         -5    1    4    4    0  501  0.69138954245E+02 -0.46172229565E+02  0.41025352941E+03  0.41861929981E+03  0.47000000000E+01 0. -1.
          1    1    1    2  502    0 -0.88322161429E+01  0.18344154504E+03 -0.69497504417E+03  0.71883177483E+03  0.00000000000E+00 0. -1.
          1    1    1    2  503    0 -0.13689040460E+02  0.55818342395E+02  0.75268532586E+03  0.75487633222E+03  0.00000000000E+00 0. -1.
<mgrwt>
<rscale>  0 0.10249295E+03</rscale>
<asrwt>0</asrwt>
<pdfrwt beam="1">  1        2 0.30895122E+00 0.57472404E+02</pdfrwt>
<pdfrwt beam="2">  1        2 0.10904087E+00 0.18277997E+03</pdfrwt>
<totfact> 0.56797215E+01</totfact>
</mgrwt>
</event>
<event>
13    1  0.1595792E-008  0.7350792E+02  0.7546771E-02  0.1392168E+00
          2   -1    0    0  502    0  0.00000000000E+00  0.00000000000E+00  0.11908963186E+04  0.11908963186E+04  0.00000000000E+00 0. -1.
          2   -1    0    0  503    0 -0.00000000000E+00 -0.00000000000E+00 -0.12328831726E+04  0.12328831726E+04  0.00000000000E+00 0. -1.
         24    2    1    2    0    0 -0.49554381945E+01 -0.28579018838E+02  0.11483220460E+02  0.85208695770E+02  0.79292753750E+02 0.  0.
         25    2    1    2    0    0 -0.17992959983E+02  0.38196609568E+02  0.29750884487E+03  0.32545391597E+03  0.12500404416E+03 0.  0.
         24    2    1    2    0    0 -0.89332704189E+00  0.12368399664E+02  0.18965484259E+03  0.20614413176E+03  0.79828994722E+02 0.  0.
        -11    1    5    5    0    0 -0.60281574453E+01  0.41862490229E+02  0.62178573759E+02  0.75199613065E+02  0.00000000000E+00 0.  1.
         12    1    5    5    0    0  0.51348304034E+01 -0.29494090565E+02  0.12747626883E+03  0.13094451870E+03  0.00000000000E+00 0. -1.
        -11    1    3    3    0    0  0.13791598287E+02 -0.46109061604E+02 -0.12879362687E+02  0.49820996864E+02  0.00000000000E+00 0.  1.
         12    1    3    3    0    0 -0.18747036481E+02  0.17530042767E+02  0.24362583147E+02  0.35387698905E+02  0.00000000000E+00 0. -1.
          5    1    4    4  501    0 -0.27504377089E+02  0.77677298886E+02  0.13808631466E+03  0.16087316065E+03  0.47000000000E+01 0. -1.
         -5    1    4    4    0  501  0.95114171058E+01 -0.39480689318E+02  0.15942253021E+03  0.16458075532E+03  0.47000000000E+01 0. -1.
          1    1    1    2  502    0  0.18519232442E+02 -0.72946267750E+02  0.63037088931E+03  0.63484768098E+03  0.00000000000E+00 0. -1.
          1    1    1    2  503    0  0.53224927777E+01  0.50960277355E+02 -0.11710046512E+04  0.11721250667E+04  0.00000000000E+00 0. -1.
<mgrwt>
<rscale>  0 0.61370677E+02</rscale>
<asrwt>0</asrwt>
<pdfrwt beam="1">  1        2 0.17513181E+00 0.73507916E+02</pdfrwt>
<pdfrwt beam="2">  1        2 0.18130635E+00 0.51237475E+02</pdfrwt>
<totfact> 0.83506126E+01</totfact>
</mgrwt>
</event>
<event>
13    1  0.1595792E-008  0.2088437E+03  0.7546771E-02  0.1257092E+00
          2   -1    0    0  502    0  0.00000000000E+00  0.00000000000E+00  0.31069043426E+04  0.31069043426E+04  0.00000000000E+00 0. -1.
          4   -1    0    0  503    0 -0.00000000000E+00 -0.00000000000E+00 -0.99182218214E+03  0.99182218214E+03  0.00000000000E+00 0. -1.
         24    2    1    2    0    0 -0.92779110106E+02  0.10824164509E+03 -0.18989511071E+03  0.25076726675E+03  0.80621659597E+02 0.  0.
         25    2    1    2    0    0  0.39662396293E+03 -0.45202537807E+01  0.94281039022E+02  0.42643357276E+03  0.12500270794E+03 0.  0.
         24    2    1    2    0    0 -0.90722310946E+02 -0.10675255999E+02  0.23008026401E+02  0.12263790341E+03  0.78525074207E+02 0.  0.
        -11    1    5    5    0    0 -0.65652131076E+02  0.29761445969E+02  0.69224854738E+01  0.72414548166E+02  0.00000000000E+00 0.  1.
         12    1    5    5    0    0 -0.25070179870E+02 -0.40436701968E+02  0.16085540927E+02  0.50223355241E+02  0.00000000000E+00 0. -1.
        -11    1    3    3    0    0 -0.40472335266E+02  0.12130007749E+02 -0.15736757515E+02  0.45086500717E+02  0.00000000000E+00 0.  1.
         12    1    3    3    0    0 -0.52306774840E+02  0.96111637340E+02 -0.17415835320E+03  0.20568076603E+03  0.00000000000E+00 0. -1.
          5    1    4    4  501    0  0.59065159719E+02 -0.38924487466E+02  0.43869958660E+02  0.83369491362E+02  0.47000000000E+01 0. -1.
         -5    1    4    4    0  501  0.33755880321E+03  0.34404233686E+02  0.50411080362E+02  0.34306408140E+03  0.47000000000E+01 0. -1.
          1    1    1    2  502    0 -0.57070617733E+02  0.18378069923E+02  0.27264045013E+04  0.27270636798E+04  0.00000000000E+00 0. -1.
          3    1    1    2  503    0 -0.15605192415E+03 -0.11142420523E+03 -0.53871629557E+03  0.57182410202E+03  0.00000000000E+00 0. -1.
<mgrwt>
<rscale>  0 0.11189988E+03</rscale>
<asrwt>0</asrwt>
<pdfrwt beam="1">  1        2 0.45689769E+00 0.59956725E+02</pdfrwt>
<pdfrwt beam="2">  1        4 0.14585620E+00 0.20884369E+03</pdfrwt>
<totfact> 0.49389177E-01</totfact>
</mgrwt>
</event>
<event>
13    1  0.1595792E-008  0.2337685E+03  0.7546771E-02  0.1200994E+00
         -1   -1    0    0    0  501 -0.00000000000E+00  0.00000000000E+00  0.41858118310E+03  0.41858118310E+03  0.00000000000E+00 0.  1.
          2   -1    0    0  503    0  0.00000000000E+00 -0.00000000000E+00 -0.20675881313E+04  0.20675881313E+04  0.00000000000E+00 0. -1.
         24    2    1    2    0    0 -0.11451823758E+03  0.92184307763E+01 -0.68671382280E+02  0.15636036024E+03  0.80829433402E+02 0.  0.
         25    2    1    2    0    0 -0.21917377809E+03  0.12201155076E+01 -0.48510214871E+03  0.54679303050E+03  0.12497955769E+03 0.  0.
         24    2    1    2    0    0  0.16062026007E+02 -0.44576861548E+02 -0.19976327157E+03  0.22010499283E+03  0.79345812342E+02 0.  0.
        -11    1    3    3    0    0 -0.89108448405E+02  0.13180640109E+02 -0.79626037571E+01  0.90429242557E+02  0.00000000000E+00 0.  1.
         12    1    3    3    0    0 -0.25409789180E+02 -0.39622093322E+01 -0.60708778523E+02  0.65931117682E+02  0.00000000000E+00 0. -1.
        -11    1    5    5    0    0 -0.16833332183E+02  0.42011244364E+01 -0.72520902142E+01  0.18804343419E+02  0.00000000000E+00 0.  1.
         12    1    5    5    0    0  0.32895358190E+02 -0.48777985984E+02 -0.19251118136E+03  0.20130064942E+03  0.00000000000E+00 0. -1.
          5    1    4    4  502    0 -0.21032329823E+03 -0.31008080593E+02 -0.36903216338E+03  0.42591574102E+03  0.47000000000E+01 0. -1.
         -5    1    4    4    0  502 -0.88504798505E+01  0.32228196101E+02 -0.11606998533E+03  0.12087728948E+03  0.47000000000E+01 0. -1.
          1    1    1    2  503    0  0.83946385360E+02  0.59273734909E+02 -0.11853080240E+04  0.11897543792E+04  0.00000000000E+00 0. -1.
         -2    1    1    2    0  501  0.23368360430E+03 -0.25135419645E+02  0.28983787835E+03  0.37315655155E+03  0.00000000000E+00 0.  1.
<mgrwt>
<rscale>  0 0.14957681E+03</rscale>
<asrwt>0</asrwt>
<pdfrwt beam="2">  1        2 0.30405707E+00 0.95706745E+02</pdfrwt>
<pdfrwt beam="1">  1       -1 0.61556058E-01 0.23376851E+03</pdfrwt>
<totfact> 0.27279714E+01</totfact>
</mgrwt>
</event>
<event>
13    1  0.1595792E-008  0.1435132E+03  0.7546771E-02  0.1269450E+00
          2   -1    0    0  502    0  0.00000000000E+00  0.00000000000E+00  0.44417684846E+04  0.44417684846E+04  0.00000000000E+00 0. -1.
          2   -1    0    0  503    0 -0.00000000000E+00 -0.00000000000E+00 -0.69260310108E+03  0.69260310108E+03  0.00000000000E+00 0. -1.
         24    2    1    2    0    0 -0.23656074219E+02  0.17828291790E+02 -0.19131013748E+03  0.20787609461E+03  0.75732715350E+02 0.  0.
         25    2    1    2    0    0 -0.11172698362E+03  0.71765456767E+02  0.61721862197E+02  0.19252787067E+03  0.12499677219E+03 0.  0.
         24    2    1    2    0    0 -0.79954989077E+02 -0.59824319016E+02  0.12876813331E+03  0.18224703656E+03  0.81614954242E+02 0.  0.
        -11    1    5    5    0    0  0.56658651516E+01 -0.40667945774E+02  0.36757122125E+02  0.55109616840E+02  0.00000000000E+00 0.  1.
         12    1    5    5    0    0 -0.85620854228E+02 -0.19156373243E+02  0.92011011182E+02  0.12713741972E+03  0.00000000000E+00 0. -1.
        -13    1    3    3    0    0  0.26999443167E+02  0.13854208728E+02 -0.65282439916E+02  0.71991013274E+02  0.00000000000E+00 0.  1.
         14    1    3    3    0    0 -0.50655517386E+02  0.39740830622E+01 -0.12602769756E+03  0.13588508134E+03  0.00000000000E+00 0. -1.
          5    1    4    4  501    0 -0.11064184788E+03  0.13347998500E+02  0.60814918582E+01  0.11170882736E+03  0.47000000000E+01 0.  1.
         -5    1    4    4    0  501 -0.10851357333E+01  0.58417458268E+02  0.55640370339E+02  0.80819043309E+02  0.47000000000E+01 0.  1.
          1    1    1    2  502    0  0.14411802179E+03  0.33483582006E+00  0.41458607768E+04  0.41483649426E+04  0.00000000000E+00 0. -1.
          1    1    1    2  503    0  0.71220025122E+02 -0.30104265361E+02 -0.39587525128E+03  0.40335564127E+03  0.00000000000E+00 0. -1.
<mgrwt>
<rscale>  0 0.10534042E+03</rscale>
<asrwt>0</asrwt>
<pdfrwt beam="1">  1        2 0.65320123E+00 0.14351319E+03</pdfrwt>
<pdfrwt beam="2">  1        2 0.10185340E+00 0.77321141E+02</pdfrwt>
<totfact> 0.23682830E+00</totfact>
</mgrwt>
</event>
<event>
13    1  0.1595792E-008  0.1006267E+03  0.7546771E-02  0.1343453E+00
          2   -1    0    0  503    0  0.00000000000E+00  0.00000000000E+00  0.16232636976E+04  0.16232636976E+04  0.00000000000E+00 0. -1.
          2   -1    0    0  502    0 -0.00000000000E+00 -0.00000000000E+00 -0.55080478084E+03  0.55080478084E+03  0.00000000000E+00 0. -1.
         24    2    1    2    0    0 -0.20064317792E+02  0.20241018839E+02 -0.56932443159E+02  0.10322245700E+03  0.81248365232E+02 0.  0.
         25    2    1    2    0    0  0.72674052716E+02 -0.39640356315E+02  0.96388523972E+02  0.17823820193E+03  0.12500093315E+03 0.  0.
         24    2    1    2    0    0 -0.77616613369E+01 -0.82921258555E+01  0.39016049742E+03  0.39843669967E+03  0.79984918292E+02 0.  0.
        -11    1    3    3    0    0  0.29475284687E+02  0.16932251811E+02 -0.11393983385E+02  0.35851309825E+02  0.00000000000E+00 0.  1.
         12    1    3    3    0    0 -0.49539602479E+02  0.33087670279E+01 -0.45538459774E+02  0.67371147175E+02  0.00000000000E+00 0. -1.
        -11    1    5    5    0    0 -0.21634601670E+02  0.19572792015E+02  0.59025776564E+02  0.65842178546E+02  0.00000000000E+00 0.  1.
         12    1    5    5    0    0  0.13872940333E+02 -0.27864917871E+02  0.33113472086E+03  0.33259452112E+03  0.00000000000E+00 0. -1.
          5    1    4    4  501    0  0.19665510414E+02 -0.74337799418E+02  0.21397002127E+02  0.79954752342E+02  0.47000000000E+01 0.  1.
         -5    1    4    4    0  501  0.53008542302E+02  0.34697443102E+02  0.74991521845E+02  0.98283449591E+02  0.47000000000E+01 0.  1.
          1    1    1    2  502    0 -0.10088561987E+03  0.25017851566E+02 -0.41856727293E+03  0.43127991277E+03  0.00000000000E+00 0. -1.
          1    1    1    2  503    0  0.56037546286E+02  0.26736117653E+01  0.10614096114E+04  0.10628912071E+04  0.00000000000E+00 0. -1.
<mgrwt>
<rscale>  0 0.75135119E+02</rscale>
<asrwt>0</asrwt>
<pdfrwt beam="1">  1        2 0.23871525E+00 0.56101290E+02</pdfrwt>
<pdfrwt beam="2">  1        2 0.81000703E-01 0.10062667E+03</pdfrwt>
<totfact> 0.13598059E+02</totfact>
</mgrwt>
</event>
<event>
13    1  0.1595792E-008  0.6896825E+02  0.7546771E-02  0.1438413E+00
          2   -1    0    0  503    0  0.00000000000E+00  0.00000000000E+00  0.12085991832E+04  0.12085991832E+04  0.00000000000E+00 0. -1.
          2   -1    0    0  502    0 -0.00000000000E+00 -0.00000000000E+00 -0.11384262820E+04  0.11384262820E+04  0.00000000000E+00 0. -1.
         24    2    1    2    0    0  0.31160912667E+02 -0.45691123293E+02 -0.98013404237E+02  0.13755327275E+03  0.79092314469E+02 0.  0.
         25    2    1    2    0    0  0.10288693942E+02 -0.26887023266E+02 -0.55844792634E+02  0.13990357116E+03  0.12500239644E+03 0.  0.
         24    2    1    2    0    0 -0.13288535320E+02  0.56148513704E+02  0.10549927908E+03  0.14461951572E+03  0.80345912632E+02 0.  0.
        -13    1    5    5    0    0 -0.12312030964E+02 -0.19077121280E+02  0.16410328418E+02  0.28014666545E+02  0.00000000000E+00 0.  1.
         14    1    5    5    0    0 -0.97650435536E+00  0.75225634985E+02  0.89088950666E+02  0.11660484917E+03  0.00000000000E+00 0. -1.
        -13    1    3    3    0    0  0.27572019104E+02 -0.64368608189E+02 -0.50385645671E+02  0.86268460328E+02  0.00000000000E+00 0.  1.
         14    1    3    3    0    0  0.35888935623E+01  0.18677484897E+02 -0.47627758567E+02  0.51284812422E+02  0.00000000000E+00 0. -1.
          5    1    4    4  501    0  0.24794521632E+01 -0.44272951311E+02  0.28753608360E+02  0.53057533815E+02  0.47000000000E+01 0.  1.
         -5    1    4    4    0  501  0.78092417790E+01  0.17385928045E+02 -0.84598400993E+02  0.86846037340E+02  0.47000000000E+01 0.  1.
          1    1    1    2  502    0  0.37985930260E+02 -0.37393966866E+01 -0.90163428174E+03  0.90244184964E+03  0.00000000000E+00 0. -1.
          1    1    1    2  503    0 -0.66147001549E+02  0.20169029541E+02  0.10201661006E+04  0.10225072559E+04  0.00000000000E+00 0. -1.
<mgrwt>
<rscale>  0 0.51307763E+02</rscale>
<asrwt>0</asrwt>
<pdfrwt beam="1">  1        2 0.17773517E+00 0.68968249E+02</pdfrwt>
<pdfrwt beam="2">  1        2 0.16741563E+00 0.38169543E+02</pdfrwt>
<totfact> 0.93435608E+01</totfact>
</mgrwt>
</event>
<event>
13    1  0.1595792E-008  0.1699570E+03  0.7546771E-02  0.1318903E+00
          2   -1    0    0  503    0  0.00000000000E+00  0.00000000000E+00  0.10553205613E+04  0.10553205613E+04  0.00000000000E+00 0. -1.
          2   -1    0    0  502    0 -0.00000000000E+00 -0.00000000000E+00 -0.18478382406E+04  0.18478382406E+04  0.00000000000E+00 0. -1.
         24    2    1    2    0    0 -0.10312265412E+03  0.12981549163E+02 -0.52856011877E+03  0.54458561799E+03  0.79968079618E+02 0.  0.
         25    2    1    2    0    0 -0.72753841986E+02 -0.34168847627E+03 -0.56999059921E+03  0.68011545482E+03  0.12499444930E+03 0.  0.
         24    2    1    2    0    0  0.58425074519E+02  0.25897933568E+03  0.71144428439E+02  0.28659015420E+03  0.81170198646E+02 0.  0.
        -13    1    5    5    0    0 -0.51856984268E+01  0.20480769548E+02  0.29470646908E+02  0.36261169571E+02  0.00000000000E+00 0.  1.
         14    1    5    5    0    0  0.63610772946E+02  0.23849856613E+03  0.41673781532E+02  0.25032898463E+03  0.00000000000E+00 0. -1.
        -13    1    3    3    0    0 -0.11076558839E+03  0.17773050926E+02 -0.39223142663E+03  0.40795880790E+03  0.00000000000E+00 0.  1.
         14    1    3    3    0    0  0.76429342774E+01 -0.47915017630E+01 -0.13632869214E+03  0.13662681009E+03  0.00000000000E+00 0. -1.
          5    1    4    4  501    0 -0.35834543416E+02 -0.23239753527E+02 -0.31033610558E+02  0.53003543562E+02  0.47000000000E+01 0.  1.
         -5    1    4    4    0  501 -0.36919298570E+02 -0.31844872274E+03 -0.53895698865E+03  0.62711191126E+03  0.47000000000E+01 0.  1.
          1    1    1    2  502    0 -0.15573504535E+02 -0.38151042553E+02 -0.56871983260E+03  0.57021073655E+03  0.00000000000E+00 0. -1.
          1    1    1    2  503    0  0.13302492612E+03  0.10787863398E+03  0.80360844281E+03  0.82165683834E+03  0.00000000000E+00 0. -1.
<mgrwt>
<rscale>  0 0.83686661E+02</rscale>
<asrwt>0</asrwt>
<pdfrwt beam="1">  1        2 0.15519420E+00 0.16995699E+03</pdfrwt>
<pdfrwt beam="2">  1        2 0.27174092E+00 0.41207233E+02</pdfrwt>
<totfact> 0.49127903E+01</totfact>
</mgrwt>
</event>
<event>
13    1  0.1595792E-008  0.4841623E+02  0.7546771E-02  0.1633181E+00
          2   -1    0    0  503    0  0.00000000000E+00  0.00000000000E+00  0.47038214046E+03  0.47038214046E+03  0.00000000000E+00 0. -1.
         -1   -1    0    0    0  501 -0.00000000000E+00 -0.00000000000E+00 -0.75551602350E+03  0.75551602350E+03  0.00000000000E+00 0.  1.
         24    2    1    2    0    0 -0.45085244190E+02 -0.44885016109E+02 -0.40224901596E+02  0.11017932087E+03  0.80461768095E+02 0.  0.
         25    2    1    2    0    0 -0.39834852670E+02  0.13145632437E+03 -0.10556647503E+03  0.21364890080E+03  0.12503596066E+03 0.  0.
         24    2    1    2    0    0  0.13516195929E+03 -0.11386952149E+03  0.33830361705E+03  0.39004314973E+03  0.80307522559E+02 0.  0.
        -13    1    3    3    0    0 -0.69703292209E+01 -0.51945531432E+02  0.25249533340E+01  0.52471888802E+02  0.00000000000E+00 0.  1.
         14    1    3    3    0    0 -0.38114914969E+02  0.70605153227E+01 -0.42749854930E+02  0.57707432072E+02  0.00000000000E+00 0. -1.
        -13    1    5    5    0    0  0.66622293623E+02 -0.99371873123E+02  0.17131750246E+03  0.20895689944E+03  0.00000000000E+00 0.  1.
         14    1    5    5    0    0  0.68539665663E+02 -0.14497648369E+02  0.16698611459E+03  0.18108625028E+03  0.00000000000E+00 0. -1.
          5    1    4    4  502    0 -0.67647419915E+02  0.13498883581E+03 -0.10710468558E+03  0.18518008232E+03  0.47000000000E+01 0. -1.
         -5    1    4    4    0  502  0.27812567245E+02 -0.35325114382E+01  0.15382105566E+01  0.28468818478E+02  0.47000000000E+01 0. -1.
          1    1    1    2  503    0 -0.14244470763E+02 -0.50511994132E+01  0.12428947504E+02  0.19567787276E+02  0.00000000000E+00 0. -1.
         -2    1    1    2    0  501 -0.35997391663E+02  0.32349412639E+02 -0.49007507097E+03  0.49245900529E+03  0.00000000000E+00 0.  1.
<mgrwt>
<rscale>  0 0.27050718E+02</rscale>
<asrwt>0</asrwt>
<pdfrwt beam="1">  1        2 0.69173844E-01 0.15113556E+02</pdfrwt>
<pdfrwt beam="2">  1       -1 0.11110530E+00 0.48416229E+02</pdfrwt>
<totfact> 0.70881155E+01</totfact>
</mgrwt>
</event>
<event>
13    1  0.1595792E-008  0.1505267E+03  0.7546771E-02  0.1308225E+00
          2   -1    0    0  502    0  0.00000000000E+00  0.00000000000E+00  0.29340619298E+04  0.29340619298E+04  0.00000000000E+00 0. -1.
          2   -1    0    0  503    0 -0.00000000000E+00 -0.00000000000E+00 -0.58113123158E+03  0.58113123158E+03  0.00000000000E+00 0. -1.
         24    2    1    2    0    0 -0.16144749334E+03 -0.95230228250E+02  0.54028341360E+03  0.57740715034E+03  0.79741838332E+02 0.  0.
         25    2    1    2    0    0 -0.63299070057E+02  0.93683179629E+02  0.32630702845E+03  0.36725070179E+03  0.12495395448E+03 0.  0.
         24    2    1    2    0    0  0.35246836571E+02 -0.46044463701E+02  0.43096153128E+03  0.44229759296E+03  0.80851018381E+02 0.  0.
        -11    1    5    5    0    0  0.28974503097E+02  0.12136802094E+02  0.71396572120E+02  0.78001886550E+02  0.00000000000E+00 0.  1.
         12    1    5    5    0    0  0.62723334740E+01 -0.58181265795E+02  0.35956495916E+03  0.36429570641E+03  0.00000000000E+00 0. -1.
        -13    1    3    3    0    0 -0.38821860977E+02 -0.61142319197E+02  0.25363470073E+03  0.26377278385E+03  0.00000000000E+00 0.  1.
         14    1    3    3    0    0 -0.12262563236E+03 -0.34087909054E+02  0.28664871287E+03  0.31363436649E+03  0.00000000000E+00 0. -1.
          5    1    4    4  501    0 -0.21137508579E+02  0.60387239118E+02  0.30085300580E+03  0.30761669984E+03  0.47000000000E+01 0. -1.
         -5    1    4    4    0  501 -0.42161561478E+02  0.33295940511E+02  0.25454022644E+02  0.59634001958E+02  0.47000000000E+01 0. -1.
          1    1    1    2  502    0  0.50521723420E+02 -0.85066748393E+01  0.15809169079E+04  0.15817468437E+04  0.00000000000E+00 0. -1.
          1    1    1    2  503    0  0.13897800341E+03  0.56098187161E+02 -0.52553818297E+03  0.54649087256E+03  0.00000000000E+00 0. -1.
<mgrwt>
<rscale>  0 0.87817530E+02</rscale>
<asrwt>0</asrwt>
<pdfrwt beam="1">  1        2 0.43147969E+00 0.51232881E+02</pdfrwt>
<pdfrwt beam="2">  1        2 0.85460476E-01 0.15052674E+03</pdfrwt>
<totfact> 0.30272942E+01</totfact>
</mgrwt>
</event>
<event>
13    1  0.1595792E-008  0.7129761E+02  0.7546771E-02  0.1372476E+00
         -1   -1    0    0    0  501 -0.00000000000E+00  0.00000000000E+00  0.14090597651E+03  0.14090597651E+03  0.00000000000E+00 0.  1.
          2   -1    0    0  503    0  0.00000000000E+00 -0.00000000000E+00 -0.34055673771E+04  0.34055673771E+04  0.00000000000E+00 0. -1.
         24    2    1    2    0    0 -0.43215585511E+02 -0.10382090768E+03 -0.43385896269E+03  0.45525230790E+03  0.79841697375E+02 0.  0.
         25    2    1    2    0    0  0.98904776214E+02  0.16072245932E+03 -0.34636617109E+03  0.41377474549E+03  0.12500460729E+03 0.  0.
         24    2    1    2    0    0 -0.49619386602E+02 -0.70203636168E+02 -0.96279259432E+03  0.97000844915E+03  0.80970227201E+02 0.  0.
        -11    1    5    5    0    0 -0.27475575961E+00 -0.32593939945E+02 -0.10424718915E+03  0.10922415876E+03  0.00000000000E+00 0.  1.
         12    1    5    5    0    0 -0.49344630842E+02 -0.37609696223E+02 -0.85854540517E+03  0.86078429039E+03  0.00000000000E+00 0. -1.
        -13    1    3    3    0    0 -0.17766352161E+02 -0.10352410927E+03 -0.39555678606E+03  0.40926526297E+03  0.00000000000E+00 0.  1.
         14    1    3    3    0    0 -0.25449233350E+02 -0.29679840213E+00 -0.38302176629E+02  0.45987044935E+02  0.00000000000E+00 0. -1.
          5    1    4    4  502    0  0.35323723118E+02  0.33949799076E+02 -0.21445810939E+03  0.22003346326E+03  0.47000000000E+01 0. -1.
         -5    1    4    4    0  502  0.63581053095E+02  0.12677266025E+03 -0.13190806170E+03  0.19374128223E+03  0.47000000000E+01 0. -1.
          1    1    1    2  503    0 -0.65723620461E+02  0.30176128111E+02 -0.16032911519E+04  0.16049214033E+04  0.00000000000E+00 0. -1.
         -2    1    1    2    0  501  0.59653816360E+02 -0.16874043587E+02  0.81647479449E+02  0.10251644772E+03  0.00000000000E+00 0.  1.
<mgrwt>
<rscale>  0 0.66483501E+02</rscale>
<asrwt>0</asrwt>
<pdfrwt beam="2">  1        2 0.50081879E+00 0.71297613E+02</pdfrwt>
<pdfrwt beam="1">  1       -1 0.20721465E-01 0.61994445E+02</pdfrwt>
<totfact> 0.38005797E+01</totfact>
</mgrwt>
</event>
<event>
13    1  0.1595792E-008  0.1183522E+03  0.7546771E-02  0.1363572E+00
          2   -1    0    0  503    0  0.00000000000E+00  0.00000000000E+00  0.27670658494E+04  0.27670658494E+04  0.00000000000E+00 0. -1.
         -1   -1    0    0    0  501 -0.00000000000E+00 -0.00000000000E+00 -0.51376273103E+03  0.51376273103E+03  0.00000000000E+00 0.  1.
         24    2    1    2    0    0 -0.38450812738E+03 -0.13068813350E+03  0.27805446875E+03  0.49946175218E+03  0.84981562930E+02 0.  0.
         25    2    1    2    0    0  0.10913887807E+03  0.22436920111E+03  0.36934543992E+03  0.46292084869E+03  0.12500729995E+03 0.  0.
         24    2    1    2    0    0  0.14304006311E+03 -0.12295413873E+03  0.11407037433E+04  0.11588820920E+04  0.78895458054E+02 0.  0.
        -11    1    5    5    0    0  0.13078130946E+03 -0.68345715487E+02  0.77545013747E+03  0.78936544352E+03  0.00000000000E+00 0.  1.
         12    1    5    5    0    0  0.12258753644E+02 -0.54608423243E+02  0.36525360581E+03  0.36951664845E+03  0.00000000000E+00 0. -1.
        -13    1    3    3    0    0 -0.11347644391E+03 -0.50988586127E+02  0.41965229597E+02  0.13129287769E+03  0.00000000000E+00 0.  1.
         14    1    3    3    0    0 -0.27103168347E+03 -0.79699547371E+02  0.23608923915E+03  0.36816887448E+03  0.00000000000E+00 0. -1.
          5    1    4    4  502    0  0.11347926640E+03  0.22600297116E+03  0.37625058943E+03  0.45336683042E+03  0.47000000000E+01 0. -1.
         -5    1    4    4    0  502 -0.43403883277E+01 -0.16337700475E+01 -0.69051495051E+01  0.95540182694E+01  0.47000000000E+01 0. -1.
          1    1    1    2  503    0  0.14328526132E+02  0.37572815671E+02  0.80178700404E+03  0.80279475770E+03  0.00000000000E+00 0. -1.
         -2    1    1    2    0  501  0.11800066007E+03 -0.82997445568E+01 -0.33658753764E+03  0.35676912987E+03  0.00000000000E+00 0.  1.
<mgrwt>
<rscale>  0 0.68987001E+02</rscale>
<asrwt>0</asrwt>
<pdfrwt beam="1">  1        2 0.40692144E+00 0.40212226E+02</pdfrwt>
<pdfrwt beam="2">  1       -1 0.75553344E-01 0.11835222E+03</pdfrwt>
<totfact> 0.95318624E+00</totfact>
</mgrwt>
</event>
<event>
13    1  0.1595792E-008  0.7427455E+02  0.7546771E-02  0.1399437E+00
          2   -1    0    0  503    0  0.00000000000E+00  0.00000000000E+00  0.28492969020E+04  0.28492969020E+04  0.00000000000E+00 0. -1.
          2   -1    0    0  502    0 -0.00000000000E+00 -0.00000000000E+00 -0.13529836165E+04  0.13529836165E+04  0.00000000000E+00 0. -1.
         24    2    1    2    0    0  0.16485805158E+02 -0.27728753861E+02 -0.13677351819E+03  0.16056886521E+03  0.77683329178E+02 0.  0.
         25    2    1    2    0    0 -0.84903680242E+02  0.17283982628E+03 -0.14029373504E+03  0.26905006830E+03  0.12499346661E+03 0.  0.
         24    2    1    2    0    0  0.14129202310E+03 -0.10084614265E+03  0.11112301654E+04  0.11276449155E+04  0.81346141629E+02 0.  0.
        -11    1    3    3    0    0 -0.18879754487E+02 -0.40224666302E+02 -0.55808124944E+02  0.71337337477E+02  0.00000000000E+00 0.  1.
         12    1    3    3    0    0  0.35365559646E+02  0.12495912440E+02 -0.80965393249E+02  0.89231527728E+02  0.00000000000E+00 0. -1.
        -11    1    5    5    0    0  0.52757254376E+02  0.54367243410E+01  0.27877864128E+03  0.28377881650E+03  0.00000000000E+00 0.  1.
         12    1    5    5    0    0  0.88534768720E+02 -0.10628286699E+03  0.83245152408E+03  0.84386609899E+03  0.00000000000E+00 0. -1.
          5    1    4    4  501    0 -0.36150740697E+02  0.17145080301E+03 -0.83854560352E+02  0.19430885517E+03  0.47000000000E+01 0.  1.
         -5    1    4    4    0  501 -0.48752939546E+02  0.13890232643E+01 -0.56439174693E+02  0.74741213129E+02  0.47000000000E+01 0.  1.
          1    1    1    2  502    0 -0.74192787053E+02  0.35722504690E+01 -0.98969488049E+03  0.99247835599E+03  0.00000000000E+00 0. -1.
          1    1    1    2  503    0  0.13186390406E+01 -0.47837180235E+02  0.16518452540E+04  0.16525383135E+04  0.00000000000E+00 0. -1.
<mgrwt>
<rscale>  0 0.59619080E+02</rscale>
<asrwt>0</asrwt>
<pdfrwt beam="1">  1        2 0.41901425E+00 0.47855351E+02</pdfrwt>
<pdfrwt beam="2">  1        2 0.19896818E+00 0.74274551E+02</pdfrwt>
<totfact> 0.11745262E+01</totfact>
</mgrwt>
</event>
<event>
13    1  0.1595792E-008  0.2968008E+03  0.7546771E-02  0.1187337E+00
          2   -1    0    0  503    0  0.00000000000E+00  0.00000000000E+00  0.48492772865E+03  0.48492772865E+03  0.00000000000E+00 0. -1.
         -1   -1    0    0    0  501 -0.00000000000E+00 -0.00000000000E+00 -0.25523225858E+04  0.25523225858E+04  0.00000000000E+00 0.  1.
         24    2    1    2    0    0 -0.22971538006E+02  0.82160714992E+02 -0.13710065512E+03  0.18329183268E+03  0.86725034722E+02 0.  0.
         25    2    1    2    0    0  0.17700998446E+03 -0.64396201460E+02 -0.84746816307E+03  0.87710179579E+03  0.12500346960E+03 0.  0.
         24    2    1    2    0    0  0.37356974991E+02 -0.13367024941E+03 -0.13486595490E+03  0.20942250328E+03  0.80035491703E+02 0.  0.
        -11    1    3    3    0    0 -0.35930183404E+02  0.91966394202E+02 -0.90491400651E+02  0.13393091254E+03  0.00000000000E+00 0.  1.
         12    1    3    3    0    0  0.12958645398E+02 -0.98056792094E+01 -0.46609254466E+02  0.49360920141E+02  0.00000000000E+00 0. -1.
        -13    1    5    5    0    0 -0.18835331113E+02 -0.23154089977E+02 -0.53076568826E+02  0.60893380093E+02  0.00000000000E+00 0.  1.
         14    1    5    5    0    0  0.56192306104E+02 -0.11051615943E+03 -0.81789386078E+02  0.14852912319E+03  0.00000000000E+00 0. -1.
          5    1    4    4  502    0  0.51118113322E+02 -0.83027381569E+02 -0.32543791061E+03  0.33976246300E+03  0.47000000000E+01 0.  1.
         -5    1    4    4    0  502  0.12589187113E+03  0.18631180110E+02 -0.52203025246E+03  0.53733933279E+03  0.47000000000E+01 0.  1.
          1    1    1    2  503    0 -0.23801757012E+03  0.19002519288E+03  0.35146085221E+03  0.46506630522E+03  0.00000000000E+00 0. -1.
         -2    1    1    2    0  501  0.46622148675E+02 -0.74119457002E+02 -0.12994209363E+04  0.13023678775E+04  0.00000000000E+00 0.  1.
<mgrwt>
<rscale>  0 0.16121054E+03</rscale>
<asrwt>0</asrwt>
<pdfrwt beam="1">  1        2 0.71312901E-01 0.29680084E+03</pdfrwt>
<pdfrwt beam="2">  1       -1 0.37534156E+00 0.87563227E+02</pdfrwt>
<totfact> 0.11815360E+00</totfact>
</mgrwt>
</event>
<event>
13    1  0.1595792E-008  0.5987412E+02  0.7546771E-02  0.1550377E+00
          2   -1    0    0  502    0  0.00000000000E+00  0.00000000000E+00  0.97784693918E+03  0.97784693918E+03  0.00000000000E+00 0. -1.
          2   -1    0    0  503    0 -0.00000000000E+00 -0.00000000000E+00 -0.12839334049E+04  0.12839334049E+04  0.00000000000E+00 0. -1.
         24    2    1    2    0    0  0.83956129944E+02 -0.33534718613E+02 -0.20023632183E+03  0.23345285645E+03  0.78945819998E+02 0.  0.
         25    2    1    2    0    0 -0.23130108446E+03 -0.13117651081E+03 -0.39719358541E+03  0.49406261503E+03  0.12501061800E+03 0.  0.
         24    2    1    2    0    0  0.18509761052E+03  0.13134036767E+03  0.57475809004E+03  0.62247924934E+03  0.74980905528E+02 0.  0.
        -13    1    5    5    0    0  0.36637296551E+01 -0.83444886415E+01  0.13276448325E+02  0.16103337722E+02  0.00000000000E+00 0.  1.
         14    1    5    5    0    0  0.18143388087E+03  0.13968485631E+03  0.56148164171E+03  0.60637591161E+03  0.00000000000E+00 0. -1.
        -13    1    3    3    0    0  0.90302777779E+02 -0.31196339450E+02 -0.20431877644E+03  0.22555257851E+03  0.00000000000E+00 0.  1.
         14    1    3    3    0    0 -0.63466478349E+01 -0.23383791632E+01  0.40824546040E+01  0.79002779346E+01  0.00000000000E+00 0. -1.
          5    1    4    4  501    0  0.77918598204E+01 -0.31152065538E+00 -0.58913208635E+02  0.59612635206E+02  0.47000000000E+01 0.  1.
         -5    1    4    4    0  501 -0.23909294428E+03 -0.13086499015E+03 -0.33828037678E+03  0.43444997982E+03  0.47000000000E+01 0.  1.
          1    1    1    2  502    0 -0.29820346838E+02  0.51977994398E+02  0.31115457649E+03  0.31687242773E+03  0.00000000000E+00 0. -1.
          1    1    1    2  503    0 -0.79323091670E+01 -0.18607132647E+02 -0.59456922495E+03  0.59491319549E+03  0.00000000000E+00 0. -1.
<mgrwt>
<rscale>  0 0.34800814E+02</rscale>
<asrwt>0</asrwt>
<pdfrwt beam="1">  1        2 0.14380102E+00 0.59874122E+02</pdfrwt>
<pdfrwt beam="2">  1        2 0.18881373E+00 0.20227380E+02</pdfrwt>
<totfact> 0.11109584E+02</totfact>
</mgrwt>
</event>
<event>
13    1  0.1595792E-008  0.2588468E+02  0.7546771E-02  0.1690139E+00
          2   -1    0    0  502    0  0.00000000000E+00  0.00000000000E+00  0.79896917926E+03  0.79896917926E+03  0.00000000000E+00 0. -1.
          4   -1    0    0  503    0 -0.00000000000E+00 -0.00000000000E+00 -0.25005086012E+04  0.25005086012E+04  0.00000000000E+00 0. -1.
         24    2    1    2    0    0  0.46434598750E+02  0.47628393015E+03 -0.54702696321E+03  0.73025195673E+03  0.70900407322E+02 0.  0.
         25    2    1    2    0    0  0.39278949775E+03 -0.62889976994E+03 -0.10233281005E+04  0.12698914134E+04  0.12500116207E+03 0.  0.
         24    2    1    2    0    0 -0.47824730854E+03  0.13364721185E+03  0.42378948907E+02  0.50257776529E+03  0.64856530075E+02 0.  0.
        -11    1    3    3    0    0  0.62078701126E+02  0.30820241854E+03 -0.33889504136E+03  0.46226869349E+03  0.00000000000E+00 0.  1.
         12    1    3    3    0    0 -0.15644102376E+02  0.16808151161E+03 -0.20813192185E+03  0.26798326324E+03  0.00000000000E+00 0. -1.
        -13    1    5    5    0    0 -0.25237277673E+03  0.10028384736E+03  0.80539609704E+01  0.27168683215E+03  0.00000000000E+00 0.  1.
         14    1    5    5    0    0 -0.22587453181E+03  0.33363364488E+02  0.34324987936E+02  0.23089093314E+03  0.00000000000E+00 0. -1.
          5    1    4    4  501    0  0.20165924858E+03 -0.40797628446E+03 -0.69078606978E+03  0.82723550784E+03  0.47000000000E+01 0.  1.
         -5    1    4    4    0  501  0.19113024916E+03 -0.22092348548E+03 -0.33254203069E+03  0.44265590560E+03  0.47000000000E+01 0.  1.
          1    1    1    2  502    0  0.25669482398E+02  0.32990686341E+01  0.31084023976E+03  0.31191579126E+03  0.00000000000E+00 0. -1.
          3    1    1    2  503    0  0.13353729639E+02  0.15669559316E+02 -0.48440354690E+03  0.48484085372E+03  0.00000000000E+00 0. -1.
<mgrwt>
<rscale>  0 0.23084809E+02</rscale>
<asrwt>0</asrwt>
<pdfrwt beam="1">  1        2 0.11749547E+00 0.25884680E+02</pdfrwt>
<pdfrwt beam="2">  1        4 0.36772186E+00 0.20587792E+02</pdfrwt>
<totfact> 0.39392712E-01</totfact>
</mgrwt>
</event>
<event>
13    1  0.1595792E-008  0.1680047E+03  0.7546771E-02  0.1279608E+00
          2   -1    0    0  502    0  0.00000000000E+00  0.00000000000E+00  0.22503775697E+04  0.22503775697E+04  0.00000000000E+00 0. -1.
          2   -1    0    0  503    0 -0.00000000000E+00 -0.00000000000E+00 -0.24593931605E+04  0.24593931605E+04  0.00000000000E+00 0. -1.
         24    2    1    2    0    0  0.44894998350E+02 -0.19098260112E+03 -0.90060619582E+03  0.92529913424E+03  0.81222244894E+02 0.  0.
         25    2    1    2    0    0 -0.25392424528E+02 -0.17711182540E+02 -0.18029284729E+03  0.22155938506E+03  0.12499835643E+03 0.  0.
         24    2    1    2    0    0 -0.50887968705E+02  0.53527247774E+02  0.49589140470E+03  0.50825731120E+03  0.83441341836E+02 0.  0.
        -11    1    5    5    0    0 -0.35312113041E+02  0.76165431426E+02  0.37424357560E+03  0.38354448523E+03  0.00000000000E+00 0.  1.
         12    1    5    5    0    0 -0.15575855664E+02 -0.22638183653E+02  0.12164782910E+03  0.12471282597E+03  0.00000000000E+00 0. -1.
        -13    1    3    3    0    0  0.29169127110E+02 -0.11092203976E+02 -0.15808746747E+03  0.16113820880E+03  0.00000000000E+00 0.  1.
         14    1    3    3    0    0  0.15725871240E+02 -0.17989039714E+03 -0.74251872835E+03  0.76416092544E+03  0.00000000000E+00 0. -1.
          5    1    4    4  501    0 -0.44722874138E+02  0.44291677646E+02 -0.98890073388E+02  0.11731677116E+03  0.47000000000E+01 0.  1.
         -5    1    4    4    0  501  0.19330449609E+02 -0.62002860186E+02 -0.81402773904E+02  0.10424261390E+03  0.47000000000E+01 0.  1.
          1    1    1    2  502    0 -0.59382963674E+02  0.79507714463E+01  0.17092131499E+04  0.17102628871E+04  0.00000000000E+00 0. -1.
          1    1    1    2  503    0  0.90768358557E+02  0.14721576444E+03 -0.13332211023E+04  0.13443920127E+04  0.00000000000E+00 0. -1.
<mgrwt>
<rscale>  0 0.10032767E+03</rscale>
<asrwt>0</asrwt>
<pdfrwt beam="1">  1        2 0.33093788E+00 0.59912863E+02</pdfrwt>
<pdfrwt beam="2">  1        2 0.36167547E+00 0.16800468E+03</pdfrwt>
<totfact> 0.58985994E+00</totfact>
</mgrwt>
</event>
<event>
13    1  0.1595792E-008  0.1407841E+03  0.7546771E-02  0.1321976E+00
          2   -1    0    0  502    0  0.00000000000E+00  0.00000000000E+00  0.98813361634E+03  0.98813361634E+03  0.00000000000E+00 0. -1.
          2   -1    0    0  503    0 -0.00000000000E+00 -0.00000000000E+00 -0.47311641692E+03  0.47311641692E+03  0.00000000000E+00 0. -1.
         24    2    1    2    0    0 -0.20464421933E+02  0.28678603019E+02 -0.34112387800E+02  0.79933054866E+02  0.63121972582E+02 0.  0.
         25    2    1    2    0    0  0.50073897297E+01  0.54748614037E+02  0.10174315244E+03  0.17028624277E+03  0.12499300267E+03 0.  0.
         24    2    1    2    0    0 -0.33026896195E+01  0.53481626847E+02  0.68970009770E+01  0.97898613661E+02  0.81641764834E+02 0.  0.
        -11    1    3    3    0    0 -0.76030570308E+01  0.45107091722E+02 -0.37046857263E+02  0.58863620624E+02  0.00000000000E+00 0.  1.
         12    1    3    3    0    0 -0.12861364903E+02 -0.16428488704E+02  0.29344694631E+01  0.21069434242E+02  0.00000000000E+00 0. -1.
        -13    1    5    5    0    0  0.21199519330E+02  0.27190693447E+02 -0.30499809788E+02  0.46032508372E+02  0.00000000000E+00 0.  1.
         14    1    5    5    0    0 -0.24502208949E+02  0.26290933400E+02  0.37396810765E+02  0.51866105289E+02  0.00000000000E+00 0. -1.
          5    1    4    4  501    0 -0.69673548402E+01  0.39270556539E+02  0.12973588852E+03  0.13580946732E+03  0.47000000000E+01 0.  1.
         -5    1    4    4    0  501  0.11974744570E+02  0.15478057499E+02 -0.27992736086E+02  0.34476775444E+02  0.47000000000E+01 0.  1.
          1    1    1    2  502    0  0.65178425730E+02 -0.15061548432E+03  0.76633540188E+03  0.78371117095E+03  0.00000000000E+00 0. -1.
          1    1    1    2  503    0 -0.46418703907E+02  0.13706640416E+02 -0.32584596806E+03  0.32942095101E+03  0.00000000000E+00 0. -1.
<mgrwt>
<rscale>  0 0.82546733E+02</rscale>
<asrwt>0</asrwt>
<pdfrwt beam="1">  1        2 0.14531377E+00 0.14078412E+03</pdfrwt>
<pdfrwt beam="2">  1        2 0.69575944E-01 0.48400083E+02</pdfrwt>
<totfact> 0.32328962E+02</totfact>
</mgrwt>
</event>
<event>
13    1  0.1595792E-008  0.1578932E+03  0.7546771E-02  0.1308728E+00
          2   -1    0    0  502    0  0.00000000000E+00  0.00000000000E+00  0.95114732049E+03  0.95114732049E+03  0.00000000000E+00 0. -1.
          2   -1    0    0  503    0 -0.00000000000E+00 -0.00000000000E+00 -0.20272172563E+04  0.20272172563E+04  0.00000000000E+00 0. -1.
         24    2    1    2    0    0  0.61529997267E+02 -0.60795574346E+02 -0.19975069941E+03  0.23131196053E+03  0.78248570227E+02 0.  0.
         25    2    1    2    0    0  0.11813421673E+03  0.59832178496E+02 -0.14500787401E+03  0.23278186241E+03  0.12499811678E+03 0.  0.
         24    2    1    2    0    0 -0.30148242877E+02 -0.11043500262E+03 -0.14401828856E+03  0.20131322517E+03  0.81737022433E+02 0.  0.
        -11    1    3    3    0    0 -0.73800383786E+01  0.70698967398E+01 -0.98894878839E+00  0.10267737145E+02  0.00000000000E+00 0.  1.
         12    1    3    3    0    0  0.68910035645E+02 -0.67865471086E+02 -0.19876175063E+03  0.22104422338E+03  0.00000000000E+00 0. -1.
        -11    1    5    5    0    0  0.22626302909E+02 -0.11274969067E+02 -0.12030284992E+02  0.27996468845E+02  0.00000000000E+00 0.  1.
         12    1    5    5    0    0 -0.52774545786E+02 -0.99160033554E+02 -0.13198800357E+03  0.17331675632E+03  0.00000000000E+00 0. -1.
          5    1    4    4  501    0  0.10950742426E+03 -0.10900105682E+02 -0.79137907387E+02  0.13563033089E+03  0.47000000000E+01 0. -1.
         -5    1    4    4    0  501  0.86267924632E+01  0.70732284178E+02 -0.65869966619E+02  0.97151531514E+02  0.47000000000E+01 0. -1.
          1    1    1    2  502    0  0.32720806591E+01  0.48509155251E+02  0.85743496482E+03  0.85881229821E+03  0.00000000000E+00 0. -1.
          1    1    1    2  503    0 -0.15278805178E+03  0.62889243220E+02 -0.14447280386E+04  0.14541452304E+04  0.00000000000E+00 0. -1.
<mgrwt>
<rscale>  0 0.87616600E+02</rscale>
<asrwt>0</asrwt>
<pdfrwt beam="1">  1        2 0.13987461E+00 0.48619386E+02</pdfrwt>
<pdfrwt beam="2">  1        2 0.29812018E+00 0.15789316E+03</pdfrwt>
<totfact> 0.42812396E+01</totfact>
</mgrwt>
</event>
<event>
13    1  0.1595792E-008  0.1105163E+03  0.7546771E-02  0.1267785E+00
          2   -1    0    0  503    0  0.00000000000E+00  0.00000000000E+00  0.29474481359E+04  0.29474481359E+04  0.00000000000E+00 0. -1.
          2   -1    0    0  502    0 -0.00000000000E+00 -0.00000000000E+00 -0.36762899756E+03  0.36762899756E+03  0.00000000000E+00 0. -1.
         24    2    1    2    0    0  0.59204655785E+01  0.47107515064E+02  0.10438602249E+03  0.14035421352E+03  0.80923999356E+02 0.  0.
         25    2    1    2    0    0 -0.95419461646E+02  0.55198884813E+02  0.44756679465E+03  0.47759264633E+03  0.12500763821E+03 0.  0.
         24    2    1    2    0    0  0.45573725536E+02 -0.50733929052E+02  0.23610724072E+03  0.25838282458E+03  0.79775678634E+02 0.  0.
        -11    1    3    3    0    0  0.31836878217E+02 -0.46639606718E+01  0.57349472964E+02  0.65759420564E+02  0.00000000000E+00 0.  1.
         12    1    3    3    0    0 -0.25916412639E+02  0.51771475736E+02  0.47036549530E+02  0.74594792952E+02  0.00000000000E+00 0. -1.
        -13    1    5    5    0    0 -0.76258556131E+01  0.10530180709E+02  0.92746709602E+02  0.93653566518E+02  0.00000000000E+00 0.  1.
         14    1    5    5    0    0  0.53199581149E+02 -0.61264109760E+02  0.14336053111E+03  0.16472925806E+03  0.00000000000E+00 0. -1.
          5    1    4    4  501    0 -0.11815483372E+03  0.43326705343E+02  0.42447269276E+03  0.44276057303E+03  0.47000000000E+01 0. -1.
         -5    1    4    4    0  501  0.22735372072E+02  0.11872179470E+02  0.23094101890E+02  0.34832073304E+02  0.47000000000E+01 0. -1.
          1    1    1    2  502    0  0.86467551241E+02 -0.14416416528E+03 -0.30033052088E+03  0.34417781123E+03  0.00000000000E+00 0. -1.
          1    1    1    2  503    0 -0.42542280709E+02  0.92591694458E+02  0.20920896014E+04  0.20945696378E+04  0.00000000000E+00 0. -1.
<mgrwt>
<rscale>  0 0.10619385E+03</rscale>
<asrwt>0</asrwt>
<pdfrwt beam="1">  1        2 0.43344824E+00 0.10204042E+03</pdfrwt>
<pdfrwt beam="2">  1        2 0.54063089E-01 0.11051633E+03</pdfrwt>
<totfact> 0.43970350E+01</totfact>
</mgrwt>
</event>
<event>
13    1  0.1595792E-008  0.1083608E+03  0.7546771E-02  0.1413651E+00
         -1   -1    0    0    0  501 -0.00000000000E+00  0.00000000000E+00  0.11998986262E+04  0.11998986262E+04  0.00000000000E+00 0.  1.
          2   -1    0    0  503    0  0.00000000000E+00 -0.00000000000E+00 -0.39351649429E+04  0.39351649429E+04  0.00000000000E+00 0. -1.
         24    2    1    2    0    0 -0.47017292498E+02  0.54988416544E+02  0.30481609397E+03  0.32346012456E+03  0.80493784163E+02 0.  0.
         25    2    1    2    0    0  0.12380006259E+03 -0.15050053269E+03  0.23700852336E+03  0.33132414302E+03  0.12500312702E+03 0.  0.
         24    2    1    2    0    0  0.54943362097E+02  0.56027681769E+02 -0.70033794239E+03  0.70934240952E+03  0.80842725308E+02 0.  0.
        -11    1    3    3    0    0 -0.65601403041E+02  0.23509425138E+02  0.16883728257E+03  0.18265340165E+03  0.00000000000E+00 0.  1.
         12    1    3    3    0    0  0.18584110544E+02  0.31478991406E+02  0.13597881140E+03  0.14080672290E+03  0.00000000000E+00 0. -1.
        -13    1    5    5    0    0 -0.21296221568E+02  0.10692132590E+02 -0.13460105353E+03  0.13669416361E+03  0.00000000000E+00 0.  1.
         14    1    5    5    0    0  0.76239583664E+02  0.45335549179E+02 -0.56573688886E+03  0.57264824592E+03  0.00000000000E+00 0. -1.
          5    1    4    4  502    0  0.30525580634E+02 -0.13123112985E+03  0.12100694223E+03  0.18115791614E+03  0.47000000000E+01 0.  1.
         -5    1    4    4    0  502  0.93274481955E+02 -0.19269402848E+02  0.11600158113E+03  0.15016622688E+03  0.47000000000E+01 0.  1.
          1    1    1    2  503    0 -0.10445977159E+03  0.28645016065E+02 -0.31725596569E+04  0.31744081586E+04  0.00000000000E+00 0. -1.
         -2    1    1    2    0  501 -0.27266360598E+02  0.10839418316E+02  0.59580666527E+03  0.59652873341E+03  0.00000000000E+00 0.  1.
<mgrwt>
<rscale>  0 0.56387154E+02</rscale>
<asrwt>0</asrwt>
<pdfrwt beam="2">  1        2 0.57870074E+00 0.10836076E+03</pdfrwt>
<pdfrwt beam="1">  1       -1 0.17645568E+00 0.29341905E+02</pdfrwt>
<totfact> 0.26696220E-01</totfact>
</mgrwt>
</event>
<event>
13    1  0.1595792E-008  0.9663888E+02  0.7546771E-02  0.1401656E+00
          2   -1    0    0  502    0  0.00000000000E+00  0.00000000000E+00  0.17925885900E+04  0.17925885900E+04  0.00000000000E+00 0. -1.
          2   -1    0    0  503    0 -0.00000000000E+00 -0.00000000000E+00 -0.65005998362E+03  0.65005998362E+03  0.00000000000E+00 0. -1.
         24    2    1    2    0    0 -0.25916027303E+02  0.11686042631E+03 -0.10125124884E+02  0.14515740768E+03  0.81487147086E+02 0.  0.
         25    2    1    2    0    0  0.91861099703E+02 -0.19609789442E+03 -0.10128971150E+03  0.26977101539E+03  0.12499579695E+03 0.  0.
         24    2    1    2    0    0 -0.71661987110E+02  0.15619454996E+02  0.31481283383E+03  0.33306345862E+03  0.80279134013E+02 0.  0.
        -13    1    5    5    0    0 -0.60627554217E+01 -0.27886852463E+02  0.61426722393E+02  0.67732383448E+02  0.00000000000E+00 0.  1.
         14    1    5    5    0    0 -0.65599231688E+02  0.43506307459E+02  0.25338611143E+03  0.26533107518E+03  0.00000000000E+00 0. -1.
        -13    1    3    3    0    0 -0.20240662382E+02  0.12938760917E+03 -0.10658720563E+02  0.13139423938E+03  0.00000000000E+00 0.  1.
         14    1    3    3    0    0 -0.56753649207E+01 -0.12527182850E+02  0.53359567969E+00  0.13763168294E+02  0.00000000000E+00 0. -1.
          5    1    4    4  501    0 -0.25397406512E+02 -0.35821051271E+02  0.50548672456E+01  0.44450170467E+02  0.47000000000E+01 0.  1.
         -5    1    4    4    0  501  0.11725850621E+03 -0.16027684315E+03 -0.10634457875E+03  0.22532084493E+03  0.47000000000E+01 0.  1.
          1    1    1    2  502    0 -0.95146093134E+01  0.96392228919E+02  0.13142428975E+04  0.13178074150E+04  0.00000000000E+00 0. -1.
          1    1    1    2  503    0  0.15231524023E+02 -0.32774215811E+02 -0.37511228848E+03  0.37684927692E+03  0.00000000000E+00 0. -1.
<mgrwt>
<rscale>  0 0.59098178E+02</rscale>
<asrwt>0</asrwt>
<pdfrwt beam="1">  1        2 0.26361597E+00 0.96638882E+02</pdfrwt>
<pdfrwt beam="2">  1        2 0.95597057E-01 0.36140677E+02</pdfrwt>
<totfact> 0.91494070E+01</totfact>
</mgrwt>
</event>
<event>
13    1  0.1595792E-008  0.4917438E+02  0.7546771E-02  0.1696259E+00
          2   -1    0    0  503    0  0.00000000000E+00  0.00000000000E+00  0.21343465451E+04  0.21343465451E+04  0.00000000000E+00 0. -1.
          2   -1    0    0  502    0 -0.00000000000E+00 -0.00000000000E+00 -0.23582781649E+04  0.23582781649E+04  0.00000000000E+00 0. -1.
         24    2    1    2    0    0  0.23168649512E+03  0.26453565876E+03 -0.47755001126E+03  0.59706345350E+03  0.69086955968E+02 0.  0.
         25    2    1    2    0    0  0.92332577785E+02 -0.29106970239E+03 -0.12749312883E+02  0.33020424545E+03  0.12500168864E+03 0.  0.
         24    2    1    2    0    0 -0.28645172342E+03  0.37072522755E+02  0.10439418992E+04  0.10862185093E+04  0.81406383406E+02 0.  0.
        -11    1    5    5    0    0 -0.22997534664E+03  0.21147727930E+02  0.69471438109E+03  0.73209559332E+03  0.00000000000E+00 0.  1.
         12    1    5    5    0    0 -0.56476376776E+02  0.15924794825E+02  0.34922751808E+03  0.35412291596E+03  0.00000000000E+00 0. -1.
        -11    1    3    3    0    0  0.14359501053E+03  0.21112743566E+03 -0.33716660728E+03  0.42293692462E+03  0.00000000000E+00 0.  1.
         12    1    3    3    0    0  0.88091484587E+02  0.53408223099E+02 -0.14038340397E+03  0.17412652889E+03  0.00000000000E+00 0. -1.
          5    1    4    4  501    0 -0.16231530475E+01 -0.61524299588E+01 -0.28664897501E+02  0.29736398049E+02  0.47000000000E+01 0.  1.
         -5    1    4    4    0  501  0.93955730833E+02 -0.28491727244E+03  0.15915584618E+02  0.30046784740E+03  0.47000000000E+01 0.  1.
          1    1    1    2  502    0 -0.48054788406E+02 -0.10447393839E+02 -0.16279527089E+04  0.16286953162E+04  0.00000000000E+00 0. -1.
          1    1    1    2  503    0  0.10487438919E+02 -0.91085278500E-01  0.85037851404E+03  0.85044318553E+03  0.00000000000E+00 0. -1.
<mgrwt>
<rscale>  0 0.22709751E+02</rscale>
<asrwt>0</asrwt>
<pdfrwt beam="1">  1        2 0.31387449E+00 0.10487834E+02</pdfrwt>
<pdfrwt beam="2">  1        2 0.34680561E+00 0.49174382E+02</pdfrwt>
<totfact> 0.11056019E+01</totfact>
</mgrwt>
</event>
<event>
13    1  0.1595792E-008  0.1014887E+03  0.7546771E-02  0.1558594E+00
         -1   -1    0    0    0  501 -0.00000000000E+00  0.00000000000E+00  0.72513031201E+02  0.72513031201E+02  0.00000000000E+00 0.  1.
          2   -1    0    0  503    0  0.00000000000E+00 -0.00000000000E+00 -0.29430451758E+04  0.29430451758E+04  0.00000000000E+00 0. -1.
         24    2    1    2    0    0 -0.35514370127E+02 -0.57618405099E+02 -0.15153992425E+03  0.18513079809E+03  0.82023854278E+02 0.  0.
         25    2    1    2    0    0  0.38619865098E+02  0.78613558591E+02 -0.34246981434E+03  0.37494210005E+03  0.12499767632E+03 0.  0.
         24    2    1    2    0    0 -0.20022069554E+02  0.89981389201E+02 -0.71675220598E+03  0.72706483681E+03  0.79950099961E+02 0.  0.
        -11    1    3    3    0    0  0.21165466368E+02 -0.28636150516E+02 -0.25089992307E+02  0.43560461395E+02  0.00000000000E+00 0.  1.
         12    1    3    3    0    0 -0.56679836494E+02 -0.28982254583E+02 -0.12644993194E+03  0.14157033670E+03  0.00000000000E+00 0. -1.
        -13    1    5    5    0    0 -0.18940820733E+02  0.14468809371E+02 -0.42595304888E+03  0.42661938655E+03  0.00000000000E+00 0.  1.
         14    1    5    5    0    0 -0.10812488215E+01  0.75512579831E+02 -0.29079915710E+03  0.30044545026E+03  0.00000000000E+00 0. -1.
          5    1    4    4  502    0  0.41562979620E+01  0.83112312712E+02 -0.10105459040E+03  0.13099256306E+03  0.47000000000E+01 0. -1.
         -5    1    4    4    0  502  0.34463567136E+02 -0.44987541205E+01 -0.24141522394E+03  0.24394953699E+03  0.47000000000E+01 0. -1.
          1    1    1    2  503    0  0.16825132152E+02 -0.99653532482E+02 -0.16916104128E+04  0.16946267141E+04  0.00000000000E+00 0. -1.
         -2    1    1    2    0  501  0.91442430614E-01 -0.11323010212E+02  0.31840212777E+02  0.33793757880E+02  0.00000000000E+00 0.  1.
<mgrwt>
<rscale>  0 0.33899777E+02</rscale>
<asrwt>0</asrwt>
<pdfrwt beam="2">  1        2 0.43280065E+00 0.10148869E+03</pdfrwt>
<pdfrwt beam="1">  1       -1 0.10663684E-01 0.11323379E+02</pdfrwt>
<totfact> 0.15073870E+02</totfact>
</mgrwt>
</event>
<event>
13    1  0.1595792E-008  0.1332664E+03  0.7546771E-02  0.1277672E+00
          2   -1    0    0  503    0  0.00000000000E+00  0.00000000000E+00  0.41280502787E+04  0.41280502787E+04  0.00000000000E+00 0. -1.
          2   -1    0    0  502    0 -0.00000000000E+00 -0.00000000000E+00 -0.13986511039E+04  0.13986511039E+04  0.00000000000E+00 0. -1.
         24    2    1    2    0    0 -0.55979480690E+02  0.41499877926E+02 -0.24434541095E+03  0.26650259850E+03  0.80392866779E+02 0.  0.
         25    2    1    2    0    0 -0.14914501060E+03  0.20719377371E+03 -0.24615524643E+03  0.37601446501E+03  0.12498391298E+03 0.  0.
         24    2    1    2    0    0 -0.76016981714E+01 -0.21663306101E+01 -0.50213457280E+02  0.94671206883E+02  0.79867185486E+02 0.  0.
        -11    1    5    5    0    0 -0.11135901568E+02 -0.29760247349E+02  0.56409104176E+01  0.32272286817E+02  0.00000000000E+00 0.  1.
         12    1    5    5    0    0  0.35342033965E+01  0.27593916739E+02 -0.55854367697E+02  0.62398920067E+02  0.00000000000E+00 0. -1.
        -13    1    3    3    0    0 -0.63068304855E+02  0.52003274618E+02 -0.23927745106E+03  0.25285499843E+03  0.00000000000E+00 0.  1.
         14    1    3    3    0    0  0.70888241649E+01 -0.10503396692E+02 -0.50679598921E+01  0.13647600067E+02  0.00000000000E+00 0. -1.
          5    1    4    4  501    0 -0.89653557245E+02  0.12191965297E+03 -0.22274627359E+03  0.26933279508E+03  0.47000000000E+01 0.  1.
         -5    1    4    4    0  501 -0.59491453352E+02  0.85274120745E+02 -0.23408972837E+02  0.10668166993E+03  0.47000000000E+01 0.  1.
          1    1    1    2  502    0  0.10904837576E+03 -0.17821527790E+03 -0.74435700671E+03  0.77312326765E+03  0.00000000000E+00 0. -1.
          1    1    1    2  503    0  0.10367781370E+03 -0.68312043125E+02  0.40144702962E+04  0.40163898446E+04  0.00000000000E+00 0. -1.
<mgrwt>
<rscale>  0 0.10125843E+03</rscale>
<asrwt>0</asrwt>
<pdfrwt beam="1">  1        2 0.60706621E+00 0.76938129E+02</pdfrwt>
<pdfrwt beam="2">  1        2 0.20568399E+00 0.13326642E+03</pdfrwt>
<totfact> 0.17553588E+00</totfact>
</mgrwt>
</event>
<event>
13    1  0.1595792E-008  0.7953612E+02  0.7546771E-02  0.1458561E+00
          2   -1    0    0  502    0  0.00000000000E+00  0.00000000000E+00  0.40885605040E+04  0.40885605040E+04  0.00000000000E+00 0. -1.
          2   -1    0    0  503    0 -0.00000000000E+00 -0.00000000000E+00 -0.48170251344E+04  0.48170251344E+04  0.00000000000E+00 0. -1.
         24    2    1    2    0    0 -0.10391561726E+03 -0.18257152090E+01 -0.41689657502E+02  0.15449401842E+03  0.10643582780E+03 0.  0.
         25    2    1    2    0    0 -0.82123570065E+03  0.24382503831E+03 -0.15810289378E+04  0.18025417540E+04  0.12500218921E+03 0.  0.
         24    2    1    2    0    0  0.91223313468E+03 -0.29152869608E+03  0.96166774453E+03  0.13595496830E+04  0.80076320280E+02 0.  0.
        -11    1    3    3    0    0 -0.11683853414E+03  0.13259800849E+01 -0.60402668432E+02  0.13153510420E+03  0.00000000000E+00 0.  1.
         12    1    3    3    0    0  0.12922916888E+02 -0.31516952939E+01  0.18713010930E+02  0.22958914221E+02  0.00000000000E+00 0. -1.
        -13    1    5    5    0    0  0.51710173444E+03 -0.16360154066E+03  0.60027613518E+03  0.80900624617E+03  0.00000000000E+00 0.  1.
         14    1    5    5    0    0  0.39513140024E+03 -0.12792715542E+03  0.36139160935E+03  0.55054343685E+03  0.00000000000E+00 0. -1.
          5    1    4    4  501    0 -0.38642772706E+02  0.40289131542E+02 -0.12633543732E+03  0.13819989409E+03  0.47000000000E+01 0. -1.
         -5    1    4    4    0  501 -0.78259292794E+03  0.20353590677E+03 -0.14546935005E+04  0.16643418599E+04  0.47000000000E+01 0. -1.
          1    1    1    2  502    0 -0.10788194658E+02 -0.26404190457E+02  0.27601601447E+04  0.27603075174E+04  0.00000000000E+00 0. -1.
          1    1    1    2  503    0  0.23706377886E+02  0.75933563435E+02 -0.28275739243E+04  0.28286926655E+04  0.00000000000E+00 0. -1.
<mgrwt>
<rscale>  0 0.47629986E+02</rscale>
<asrwt>0</asrwt>
<pdfrwt beam="1">  1        2 0.60125890E+00 0.28523086E+02</pdfrwt>
<pdfrwt beam="2">  1        2 0.70838604E+00 0.79536121E+02</pdfrwt>
<totfact> 0.24579637E-02</totfact>
</mgrwt>
</event>
<event>
13    1  0.1595792E-008  0.2056461E+03  0.7546771E-02  0.1266295E+00
          2   -1    0    0  503    0  0.00000000000E+00  0.00000000000E+00  0.20554352559E+04  0.20554352559E+04  0.00000000000E+00 0. -1.
          2   -1    0    0  502    0 -0.00000000000E+00 -0.00000000000E+00 -0.48184506536E+04  0.48184506536E+04  0.00000000000E+00 0. -1.
         24    2    1    2    0    0 -0.28282670666E+02 -0.51674840943E+02 -0.30072823171E+02  0.10405942023E+03  0.80335481564E+02 0.  0.
         25    2    1    2    0    0 -0.15640546287E+03 -0.43594785678E+02  0.34565817231E+03  0.40183161581E+03  0.12500360487E+03 0.  0.
         24    2    1    2    0    0 -0.19004104977E+02 -0.59032895701E+02  0.51045062827E+03  0.52066179079E+03  0.81748502778E+02 0.  0.
        -13    1    5    5    0    0  0.11088986037E+02  0.99035199416E+01  0.22423420378E+03  0.22472655264E+03  0.00000000000E+00 0.  1.
         14    1    5    5    0    0 -0.30093091013E+02 -0.68936415642E+02  0.28621642449E+03  0.29593523814E+03  0.00000000000E+00 0. -1.
        -13    1    3    3    0    0 -0.52475882665E+02 -0.33755256300E+02 -0.12910858695E+01  0.62408352742E+02  0.00000000000E+00 0.  1.
         14    1    3    3    0    0  0.24193211998E+02 -0.17919584643E+02 -0.28781737302E+02  0.41651067485E+02  0.00000000000E+00 0. -1.
          5    1    4    4  501    0 -0.15647012257E+03 -0.52264345402E+02  0.35290893209E+03  0.38959115160E+03  0.47000000000E+01 0.  1.
         -5    1    4    4    0  501  0.64659699858E-01  0.86695597233E+01 -0.72507597840E+01  0.12240464212E+02  0.47000000000E+01 0.  1.
          1    1    1    2  502    0  0.17681188084E+03  0.10558930913E+03 -0.47152579269E+04  0.47197530509E+04  0.00000000000E+00 0. -1.
          1    1    1    2  503    0  0.26880357674E+02  0.48713213195E+02  0.11262065519E+04  0.11275800319E+04  0.00000000000E+00 0. -1.
<mgrwt>
<rscale>  0 0.10696556E+03</rscale>
<asrwt>0</asrwt>
<pdfrwt beam="1">  1        2 0.30226989E+00 0.55637494E+02</pdfrwt>
<pdfrwt beam="2">  1        2 0.70859568E+00 0.20564606E+03</pdfrwt>
<totfact> 0.20674845E-01</totfact>
</mgrwt>
</event>
<event>
13    1  0.1595792E-008  0.5179209E+02  0.7546771E-02  0.1450962E+00
          2   -1    0    0  502    0  0.00000000000E+00  0.00000000000E+00  0.60202966980E+03  0.60202966980E+03  0.00000000000E+00 0. -1.
          2   -1    0    0  503    0 -0.00000000000E+00 -0.00000000000E+00 -0.19795434809E+04  0.19795434809E+04  0.00000000000E+00 0. -1.
         24    2    1    2    0    0 -0.37594931314E+02  0.88792334448E+02 -0.30298045242E+03  0.32829946493E+03  0.81767515612E+02 0.  0.
         25    2    1    2    0    0  0.14628404009E+03 -0.50256526282E+02 -0.10565771376E+04  0.10751374094E+04  0.12506183439E+03 0.  0.
         24    2    1    2    0    0 -0.56401776697E+02  0.49944754355E+01  0.24832982225E+03  0.26801123816E+03  0.83403944521E+02 0.  0.
        -11    1    3    3    0    0 -0.38176187517E+02  0.51315181681E+02 -0.81149726640E+02  0.10332447579E+03  0.00000000000E+00 0.  1.
         12    1    3    3    0    0  0.58125620292E+00  0.37477152768E+02 -0.22183072578E+03  0.22497498914E+03  0.00000000000E+00 0. -1.
        -11    1    5    5    0    0  0.12879843825E+02 -0.12054026281E+02  0.11905033833E+03  0.12035020973E+03  0.00000000000E+00 0.  1.
         12    1    5    5    0    0 -0.69281620523E+02  0.17048501717E+02  0.12927948392E+03  0.14766102842E+03  0.00000000000E+00 0. -1.
          5    1    4    4  501    0  0.48113132077E+02  0.37104094618E+02 -0.47416976419E+03  0.47806970474E+03  0.47000000000E+01 0. -1.
         -5    1    4    4    0  501  0.98170908009E+02 -0.87360620900E+02 -0.58240737345E+03  0.59706770463E+03  0.47000000000E+01 0. -1.
          1    1    1    2  502    0 -0.56208196472E+00 -0.46303578148E+02  0.31910462185E+03  0.32244704522E+03  0.00000000000E+00 0. -1.
          1    1    1    2  503    0 -0.51725250110E+02  0.27732945460E+01 -0.58539066508E+03  0.58767799298E+03  0.00000000000E+00 0. -1.
<mgrwt>
<rscale>  0 0.48972805E+02</rscale>
<asrwt>0</asrwt>
<pdfrwt beam="1">  1        2 0.88533776E-01 0.46306990E+02</pdfrwt>
<pdfrwt beam="2">  1        2 0.29110933E+00 0.51792087E+02</pdfrwt>
<totfact> 0.85929229E+01</totfact>
</mgrwt>
</event>
<event>
13    1  0.1595792E-008  0.6202001E+02  0.7546771E-02  0.1393163E+00
          2   -1    0    0  503    0  0.00000000000E+00  0.00000000000E+00  0.24155220701E+04  0.24155220701E+04  0.00000000000E+00 0. -1.
          2   -1    0    0  502    0 -0.00000000000E+00 -0.00000000000E+00 -0.77480462914E+03  0.77480462914E+03  0.00000000000E+00 0. -1.
         24    2    1    2    0    0  0.24632115196E+02  0.94711900730E+02 -0.37289242710E+03  0.39340457591E+03  0.78366529310E+02 0.  0.
         25    2    1    2    0    0 -0.15921931164E+03  0.10312551196E+03  0.88390623400E+02  0.24376818988E+03  0.12499747068E+03 0.  0.
         24    2    1    2    0    0  0.57037933514E+02 -0.10698149903E+03  0.47104754249E+03  0.49232297367E+03  0.76142997878E+02 0.  0.
        -11    1    3    3    0    0  0.17689820212E+02  0.17783892645E+02 -0.19784039751E+02  0.31946906041E+02  0.00000000000E+00 0.  1.
         12    1    3    3    0    0  0.69422949841E+01  0.76928008085E+02 -0.35310838735E+03  0.36145766986E+03  0.00000000000E+00 0. -1.
        -13    1    5    5    0    0  0.71555990511E+01 -0.64938236440E+02  0.33662949359E+03  0.34291047389E+03  0.00000000000E+00 0.  1.
         14    1    5    5    0    0  0.49882334463E+02 -0.42043262591E+02  0.13441804889E+03  0.14941249978E+03  0.00000000000E+00 0. -1.
          5    1    4    4  501    0 -0.31956034521E+02  0.20827544192E+02 -0.32116743773E+02  0.50085426722E+02  0.47000000000E+01 0. -1.
         -5    1    4    4    0  501 -0.12726327712E+03  0.82297967772E+02  0.12050736717E+03  0.19368276316E+03  0.47000000000E+01 0. -1.
          1    1    1    2  502    0  0.48714423531E+02 -0.37957878766E+02 -0.29966366569E+03  0.30596112197E+03  0.00000000000E+00 0. -1.
          1    1    1    2  503    0  0.28834839395E+02 -0.52898034897E+02  0.17538353678E+04  0.17548698378E+04  0.00000000000E+00 0. -1.
<mgrwt>
<rscale>  0 0.61126863E+02</rscale>
<asrwt>0</asrwt>
<pdfrwt beam="1">  1        2 0.35522383E+00 0.60246577E+02</pdfrwt>
<pdfrwt beam="2">  1        2 0.11394186E+00 0.62020011E+02</pdfrwt>
<totfact> 0.39318453E+01</totfact>
</mgrwt>
</event>
<event>
13    1  0.1595792E-008  0.7186847E+02  0.7546771E-02  0.1424171E+00
          2   -1    0    0  502    0  0.00000000000E+00  0.00000000000E+00  0.95394948670E+03  0.95394948670E+03  0.00000000000E+00 0. -1.
          2   -1    0    0  503    0 -0.00000000000E+00 -0.00000000000E+00 -0.10455976996E+04  0.10455976996E+04  0.00000000000E+00 0. -1.
         24    2    1    2    0    0 -0.34503323315E+02 -0.21918302755E+02 -0.55374564352E+03  0.56062202093E+03  0.77407501736E+02 0.  0.
         25    2    1    2    0    0  0.12843018399E+02  0.48839825928E+02 -0.13301204751E+03  0.18938673640E+03  0.12499943769E+03 0.  0.
         24    2    1    2    0    0 -0.59469641611E+02  0.28489054129E+02  0.26857400045E+03  0.28830083205E+03  0.81468469748E+02 0.  0.
        -11    1    5    5    0    0  0.18425821959E+02  0.16586573618E+02  0.84689849175E+02  0.88243956692E+02  0.00000000000E+00 0.  1.
         12    1    5    5    0    0 -0.77895463571E+02  0.11902480511E+02  0.18388415128E+03  0.20005687536E+03  0.00000000000E+00 0. -1.
        -13    1    3    3    0    0 -0.44050335906E+02  0.16381079022E+02 -0.25688412173E+03  0.26114789649E+03  0.00000000000E+00 0.  1.
         14    1    3    3    0    0  0.95470125905E+01 -0.38299381777E+02 -0.29686152179E+03  0.29947412444E+03  0.00000000000E+00 0. -1.
          5    1    4    4  501    0  0.34641810515E+02  0.28100259285E+02 -0.14856758121E+03  0.15519051451E+03  0.47000000000E+01 0.  1.
         -5    1    4    4    0  501 -0.21798792116E+02  0.20739566644E+02  0.15555533705E+02  0.34196221884E+02  0.47000000000E+01 0.  1.
          1    1    1    2  502    0  0.10609995021E+03 -0.23147738250E+02  0.63796782062E+03  0.64714446407E+03  0.00000000000E+00 0. -1.
          1    1    1    2  503    0 -0.24970003677E+02 -0.32262839052E+02 -0.31143234299E+03  0.31409313289E+03  0.00000000000E+00 0. -1.
<mgrwt>
<rscale>  0 0.54148085E+02</rscale>
<asrwt>0</asrwt>
<pdfrwt beam="1">  1        2 0.14028669E+00 0.71868471E+02</pdfrwt>
<pdfrwt beam="2">  1        2 0.15376437E+00 0.40796959E+02</pdfrwt>
<totfact> 0.14315673E+02</totfact>
</mgrwt>
</event>
<event>
13    1  0.1595792E-008  0.6671327E+02  0.7546771E-02  0.1516340E+00
         -1   -1    0    0    0  501 -0.00000000000E+00  0.00000000000E+00  0.99974384583E+03  0.99974384583E+03  0.00000000000E+00 0.  1.
          4   -1    0    0  503    0  0.00000000000E+00 -0.00000000000E+00 -0.55451759156E+03  0.55451759156E+03  0.00000000000E+00 0. -1.
         24    2    1    2    0    0  0.55227030032E+02  0.38333639400E+02  0.60671013158E+02  0.12066233026E+03  0.79742920372E+02 0.  0.
         25    2    1    2    0    0 -0.94834393151E+02 -0.52946935427E+02 -0.36989263351E+02  0.16967607291E+03  0.12499929607E+03 0.  0.
         24    2    1    2    0    0  0.37768793193E+01  0.40381162993E+02 -0.98968128435E+02  0.14566370737E+03  0.98885398600E+02 0.  0.
        -11    1    3    3    0    0  0.18349894060E+01  0.46294797067E+02  0.11719855581E+02  0.47790484790E+02  0.00000000000E+00 0.  1.
         12    1    3    3    0    0  0.53392040626E+02 -0.79611576673E+01  0.48951157577E+02  0.72871845466E+02  0.00000000000E+00 0. -1.
        -13    1    5    5    0    0  0.25817204184E+02  0.66742423460E+02 -0.57438850675E+02  0.91762196399E+02  0.00000000000E+00 0.  1.
         14    1    5    5    0    0 -0.22040324864E+02 -0.26361260466E+02 -0.41529277760E+02  0.53901510969E+02  0.00000000000E+00 0. -1.
          5    1    4    4  502    0 -0.90840671064E+02  0.19059713964E+02 -0.26551203819E+02  0.96655867075E+02  0.47000000000E+01 0. -1.
         -5    1    4    4    0  502 -0.39937220863E+01 -0.72006649391E+02 -0.10438059532E+02  0.73020205830E+02  0.47000000000E+01 0. -1.
          3    1    1    2  503    0 -0.18627800139E+02  0.12975377908E+02 -0.29707673624E+03  0.29794285121E+03  0.00000000000E+00 0. -1.
         -2    1    1    2    0  501  0.54458283939E+02 -0.38743244874E+02  0.81758936914E+03  0.82031647566E+03  0.00000000000E+00 0.  1.
<mgrwt>
<rscale>  0 0.38916413E+02</rscale>
<asrwt>0</asrwt>
<pdfrwt beam="2">  1        4 0.81546704E-01 0.22701440E+02</pdfrwt>
<pdfrwt beam="1">  1       -1 0.14702115E+00 0.66713266E+02</pdfrwt>
<totfact> 0.19685045E+00</totfact>
</mgrwt>
</event>
<event>
13    1  0.1595792E-008  0.1329007E+03  0.7546771E-02  0.1276596E+00
         -3   -1    0    0    0  502 -0.00000000000E+00  0.00000000000E+00  0.14655812953E+04  0.14655812953E+04  0.00000000000E+00 0.  1.
         -1   -1    0    0    0  501  0.00000000000E+00 -0.00000000000E+00 -0.11339413547E+04  0.11339413547E+04  0.00000000000E+00 0.  1.
         24    2    1    2    0    0  0.39526695871E+02  0.56803514497E+01  0.43026550298E+03  0.43955086890E+03  0.80510478897E+02 0.  0.
         25    2    1    2    0    0 -0.12309225643E+03 -0.43337134824E+02  0.59253358875E+03  0.61947347860E+03  0.12498610340E+03 0.  0.
         24    2    1    2    0    0  0.77033397599E+02  0.11296694785E+03 -0.17462765076E+03  0.23585751173E+03  0.80238854547E+02 0.  0.
        -13    1    3    3    0    0  0.18379301280E+02 -0.32620834032E+02  0.29546663463E+03  0.29782956486E+03  0.00000000000E+00 0.  1.
         14    1    3    3    0    0  0.21147394590E+02  0.38301185482E+02  0.13479886836E+03  0.14172130404E+03  0.00000000000E+00 0. -1.
        -13    1    5    5    0    0  0.74847320540E+02  0.95684542481E+02 -0.18041409688E+03  0.21750149291E+03  0.00000000000E+00 0.  1.
         14    1    5    5    0    0  0.21860770591E+01  0.17282405371E+02  0.57864461283E+01  0.18356018825E+02  0.00000000000E+00 0. -1.
          5    1    4    4  503    0 -0.11001099468E+03  0.17621822334E+02  0.45382730912E+03  0.46732672091E+03  0.47000000000E+01 0.  1.
         -5    1    4    4    0  503 -0.13081261743E+02 -0.60958957158E+02  0.13870627963E+03  0.15214675769E+03  0.47000000000E+01 0.  1.
         -2    1    1    2    0  501  0.76884885264E+02 -0.10886957540E+03 -0.90178496224E+03  0.91158103763E+03  0.00000000000E+00 0.  1.
         -4    1    1    2    0  502 -0.70352722309E+02  0.33559410923E+02  0.38525346192E+03  0.39305975312E+03  0.00000000000E+00 0.  1.
<mgrwt>
<rscale>  0 0.10178022E+03</rscale>
<asrwt>0</asrwt>
<pdfrwt beam="2">  1       -1 0.16675608E+00 0.13290068E+03</pdfrwt>
<pdfrwt beam="1">  1       -3 0.21552666E+00 0.77947031E+02</pdfrwt>
<totfact> 0.18459235E-01</totfact>
</mgrwt>
</event>
<event>
13    1  0.1595792E-008  0.2224031E+03  0.7546771E-02  0.1179312E+00
          2   -1    0    0  503    0  0.00000000000E+00  0.00000000000E+00  0.15908368803E+04  0.15908368803E+04  0.00000000000E+00 0. -1.
         -1   -1    0    0    0  501 -0.00000000000E+00 -0.00000000000E+00 -0.65887833810E+03  0.65887833810E+03  0.00000000000E+00 0.  1.
         24    2    1    2    0    0 -0.60312347726E+02  0.28725368893E+02 -0.14092528287E+03  0.17452162780E+03  0.78327116073E+02 0.  0.
         25    2    1    2    0    0  0.39954491449E+02 -0.21551161208E+02 -0.13331173148E+02  0.13364459083E+03  0.12498936973E+03 0.  0.
         24    2    1    2    0    0  0.68199074953E+02 -0.12366461694E+03  0.39072456016E+02  0.17001712019E+03  0.86227101497E+02 0.  0.
        -13    1    5    5    0    0 -0.41515265862E+01 -0.79179257165E+02  0.84689013530E+01  0.79739025754E+02  0.00000000000E+00 0.  1.
         14    1    5    5    0    0  0.72350601539E+02 -0.44485359771E+02  0.30603554663E+02  0.90278094436E+02  0.00000000000E+00 0. -1.
        -13    1    3    3    0    0 -0.63423307481E+02 -0.98225926897E+01 -0.91501413975E+02  0.11176541513E+03  0.00000000000E+00 0.  1.
         14    1    3    3    0    0  0.31109597550E+01  0.38547961583E+02 -0.49423868891E+02  0.62756212672E+02  0.00000000000E+00 0. -1.
          5    1    4    4  502    0  0.21597519887E+02 -0.73641663026E+02 -0.11695056444E+01  0.76896067142E+02  0.47000000000E+01 0.  1.
         -5    1    4    4    0  502  0.18356971562E+02  0.52090501818E+02 -0.12161667504E+02  0.56748523690E+02  0.47000000000E+01 0.  1.
          1    1    1    2  503    0  0.41473529841E+02  0.22514839972E+03  0.13859276574E+04  0.14047089831E+04  0.00000000000E+00 0. -1.
         -2    1    1    2    0  501 -0.89314748518E+02 -0.10865799047E+03 -0.33878511514E+03  0.36682289656E+03  0.00000000000E+00 0.  1.
<mgrwt>
<rscale>  0 0.16860320E+03</rscale>
<asrwt>0</asrwt>
<pdfrwt beam="1">  1        2 0.23394660E+00 0.22240311E+03</pdfrwt>
<pdfrwt beam="2">  1       -1 0.96893873E-01 0.12781764E+03</pdfrwt>
<totfact> 0.17452622E+01</totfact>
</mgrwt>
</event>
<event>
13    1  0.1595792E-008  0.6875551E+02  0.7546771E-02  0.1641800E+00
          2   -1    0    0  502    0  0.00000000000E+00  0.00000000000E+00  0.21146608833E+04  0.21146608833E+04  0.00000000000E+00 0. -1.
          2   -1    0    0  503    0 -0.00000000000E+00 -0.00000000000E+00 -0.12971396546E+04  0.12971396546E+04  0.00000000000E+00 0. -1.
         24    2    1    2    0    0  0.85756678446E+02  0.26436294631E+03 -0.30156760533E+03  0.41968222294E+03  0.89152523200E+02 0.  0.
         25    2    1    2    0    0 -0.40937858211E+03 -0.33495382163E+03  0.80061519394E+03  0.96767467248E+03  0.12499878746E+03 0.  0.
         24    2    1    2    0    0  0.33760714387E+03 -0.63548711843E+01  0.11191013945E+04  0.11722079724E+04  0.87547879612E+02 0.  0.
        -13    1    5    5    0    0  0.17926730563E+03  0.67109039076E+01  0.73434039340E+03  0.75593492874E+03  0.00000000000E+00 0.  1.
         14    1    5    5    0    0  0.15833983824E+03 -0.13065775092E+02  0.38476100114E+03  0.41627304363E+03  0.00000000000E+00 0. -1.
        -13    1    3    3    0    0  0.25593061235E+02  0.14616994950E+03 -0.21524096617E+03  0.26143705253E+03  0.00000000000E+00 0.  1.
         14    1    3    3    0    0  0.60163617211E+02  0.11819299680E+03 -0.86326639166E+02  0.15824517041E+03  0.00000000000E+00 0. -1.
          5    1    4    4  501    0 -0.31267318465E+03 -0.24647103971E+03  0.49615250771E+03  0.63616184633E+03  0.47000000000E+01 0. -1.
         -5    1    4    4    0  501 -0.96705397457E+02 -0.88482781925E+02  0.30446268623E+03  0.33151282615E+03  0.47000000000E+01 0. -1.
          1    1    1    2  502    0 -0.50520414533E+01  0.87795063914E+01  0.23319911077E+02  0.25424812840E+02  0.00000000000E+00 0. -1.
          1    1    1    2  503    0 -0.89331987565E+01  0.68166240122E+02 -0.82394766546E+03  0.82681085730E+03  0.00000000000E+00 0. -1.
<mgrwt>
<rscale>  0 0.26390256E+02</rscale>
<asrwt>0</asrwt>
<pdfrwt beam="1">  1        2 0.31097954E+00 0.10129307E+02</pdfrwt>
<pdfrwt beam="2">  1        2 0.19075583E+00 0.68755509E+02</pdfrwt>
<totfact> 0.35015677E+01</totfact>
</mgrwt>
</event>
<event>
13    1  0.1595792E-008  0.8676424E+02  0.7546771E-02  0.1332815E+00
          2   -1    0    0  503    0  0.00000000000E+00  0.00000000000E+00  0.14854172940E+04  0.14854172940E+04  0.00000000000E+00 0. -1.
          2   -1    0    0  502    0 -0.00000000000E+00 -0.00000000000E+00 -0.28730206904E+04  0.28730206904E+04  0.00000000000E+00 0. -1.
         24    2    1    2    0    0  0.63292015304E+03  0.17641658219E+03 -0.50625038910E+03  0.83203862680E+03  0.65483505039E+02 0.  0.
         25    2    1    2    0    0 -0.61699149614E+03 -0.58449965890E+03 -0.49118418652E+03  0.98954345626E+03  0.12496395156E+03 0.  0.
         24    2    1    2    0    0 -0.93882271358E+01  0.39316794355E+03  0.24488639909E+03  0.47027684470E+03  0.80757609906E+02 0.  0.
        -13    1    5    5    0    0  0.61655425614E+01  0.26306657676E+03  0.20420437808E+03  0.33307876809E+03  0.00000000000E+00 0.  1.
         14    1    5    5    0    0 -0.15553769697E+02  0.13010136679E+03  0.40682021005E+02  0.13719807661E+03  0.00000000000E+00 0. -1.
        -13    1    3    3    0    0  0.37506543399E+03  0.11176386023E+03 -0.34056475979E+03  0.51879629513E+03  0.00000000000E+00 0.  1.
         14    1    3    3    0    0  0.25785471905E+03  0.64652721961E+02 -0.16568562931E+03  0.31324233168E+03  0.00000000000E+00 0. -1.
          5    1    4    4  501    0 -0.53156877218E+03 -0.54130896974E+03 -0.40189550598E+03  0.85855858740E+03  0.47000000000E+01 0.  1.
         -5    1    4    4    0  501 -0.85422723960E+02 -0.43190689162E+02 -0.89288680532E+02  0.13098486886E+03  0.47000000000E+01 0. -1.
          1    1    1    2  502    0 -0.55296704702E+02  0.67028010657E+02 -0.13476355687E+04  0.13504340435E+04  0.00000000000E+00 0. -1.
          1    1    1    2  503    0  0.48756274933E+02 -0.52112877500E+02  0.71258034880E+03  0.71614501313E+03  0.00000000000E+00 0. -1.
<mgrwt>
<rscale>  0 0.78688676E+02</rscale>
<asrwt>0</asrwt>
<pdfrwt beam="1">  1        2 0.21844373E+00 0.71364742E+02</pdfrwt>
<pdfrwt beam="2">  1        2 0.42250303E+00 0.86764243E+02</pdfrwt>
<totfact> 0.89782451E+00</totfact>
</mgrwt>
</event>
<event>
13    1  0.1595792E-008  0.1536129E+03  0.7546771E-02  0.1366047E+00
          2   -1    0    0  502    0  0.00000000000E+00  0.00000000000E+00  0.25367523524E+04  0.25367523524E+04  0.00000000000E+00 0. -1.
          2   -1    0    0  503    0 -0.00000000000E+00 -0.00000000000E+00 -0.30244556281E+04  0.30244556281E+04  0.00000000000E+00 0. -1.
         24    2    1    2    0    0 -0.16389555004E+03 -0.61941081929E+03 -0.26710984298E+02  0.64942562921E+03  0.10251173989E+03 0.  0.
         25    2    1    2    0    0  0.45311605888E+03  0.62544626622E+03  0.92022780059E+03  0.12078664073E+04  0.12499943298E+03 0.  0.
         24    2    1    2    0    0 -0.20654944545E+03  0.15744038087E+03  0.36599840240E+03  0.45539771677E+03  0.77344055560E+02 0.  0.
        -11    1    3    3    0    0 -0.85955408881E+02 -0.41602550113E+03  0.25055490454E+02  0.42555061686E+03  0.00000000000E+00 0.  1.
         12    1    3    3    0    0 -0.77940141157E+02 -0.20338531816E+03 -0.51766474752E+02  0.22387501235E+03  0.00000000000E+00 0. -1.
        -13    1    5    5    0    0 -0.14794398711E+03  0.76888863207E+02  0.26818654014E+03  0.31579002664E+03  0.00000000000E+00 0.  1.
         14    1    5    5    0    0 -0.58605458341E+02  0.80551517668E+02  0.97811862254E+02  0.13960769013E+03  0.00000000000E+00 0. -1.
          5    1    4    4  501    0  0.27370575503E+03  0.46868110881E+03  0.60662211998E+03  0.81399588976E+03  0.47000000000E+01 0.  1.
         -5    1    4    4    0  501  0.17941030385E+03  0.15676515740E+03  0.31360568061E+03  0.39387051757E+03  0.47000000000E+01 0.  1.
          1    1    1    2  502    0 -0.80075998046E+01 -0.29273181702E+02  0.74798134895E+03  0.74859678011E+03  0.00000000000E+00 0. -1.
          1    1    1    2  503    0 -0.74663463585E+02 -0.13420264609E+03 -0.24951998434E+04  0.24999214470E+04  0.00000000000E+00 0. -1.
<mgrwt>
<rscale>  0 0.68278444E+02</rscale>
<asrwt>0</asrwt>
<pdfrwt beam="1">  1        2 0.37305182E+00 0.30348654E+02</pdfrwt>
<pdfrwt beam="2">  1        2 0.44477288E+00 0.15361294E+03</pdfrwt>
<totfact> 0.24324510E+00</totfact>
</mgrwt>
</event>
